 DBCSR| Multiplication driver                                                SMM
 DBCSR| Multiplication stack size                                           1000
 DBCSR| Multiplication size stacks                                             0
 DBCSR| Use subcommunicators                                                   T
 DBCSR| Use MPI combined types                                                 F
 DBCSR| Use MPI memory allocation                                              T
 DBCSR| Use Communication thread                                               T
 DBCSR| Communication thread load                                            100


  **** **** ******  **  PROGRAM STARTED AT               2013-11-12 17:49:04.721
 ***** ** ***  *** **   PROGRAM STARTED ON                                    n6
 **    ****   ******    PROGRAM STARTED BY                                   spf
 ***** **    ** ** **   PROGRAM PROCESS ID                                 18642
  **** **  *******  **  PROGRAM STARTED IN                    /mnt/CalcC/spf/CO2

 CP2K| version string:                    CP2K version 2.4 (Development Version)
 CP2K| source code revision number:                                        12836
 CP2K| is freely available from                             http://www.cp2k.org/
 CP2K| Program compiled at                         Mo 15. Apr 13:01:07 CEST 2013
 CP2K| Program compiled on                                                  head
 CP2K| Program compiled for                                     Linux-x86-64-gcc
 CP2K| Input file name                                                   CO2.inp

 GLOBAL| Force Environment number                                              1
 GLOBAL| Basis set file name                                           BASIS_SET
 GLOBAL| Geminal file name                                         BASIS_GEMINAL
 GLOBAL| Potential file name                                           POTENTIAL
 GLOBAL| MM Potential file name                                     MM_POTENTIAL
 GLOBAL| Coordinate file name                                      __STD_INPUT__
 GLOBAL| Method name                                                        CP2K
 GLOBAL| Project name                                                        CO2
 GLOBAL| Preferred FFT library                                             FFTW3
 GLOBAL| Run type                                                        GEO_OPT
 GLOBAL| All-to-all communication in single precision                          F
 GLOBAL| FFTs using library dependent lengths                                  F
 GLOBAL| Global print level                                               MEDIUM
 GLOBAL| Total number of message passing processes                            32
 GLOBAL| Number of threads for this process                                    1
 GLOBAL| This output is from process                                           0

 MEMORY| system memory details [Kb]
 MEMORY|                        rank 0           min           max       average
 MEMORY| MemTotal             33018288      33018288      33018288      33018288
 MEMORY| MemFree              31942304      31120884      31942304      31494417
 MEMORY| Buffers                  3684          3660        229564         60150
 MEMORY| Cached                 394692        394692       1217108        751940
 MEMORY| Slab                    47688         46960        183316         81904
 MEMORY| SReclaimable             9640          9516        142100         43320
 MEMORY| MemLikelyFree        32350320      32343468      32353708      32349827


 *** Fundamental physical constants (SI units) ***

 *** Literature: B. J. Mohr and B. N. Taylor,
 ***             CODATA recommended values of the fundamental physical
 ***             constants: 2006, Web Version 5.1
 ***             http://physics.nist.gov/constants

 Speed of light in vacuum [m/s]                             2.99792458000000E+08
 Magnetic constant or permeability of vacuum [N/A**2]       1.25663706143592E-06
 Electric constant or permittivity of vacuum [F/m]          8.85418781762039E-12
 Planck constant (h) [J*s]                                  6.62606896000000E-34
 Planck constant (h-bar) [J*s]                              1.05457162825177E-34
 Elementary charge [C]                                      1.60217648700000E-19
 Electron mass [kg]                                         9.10938215000000E-31
 Electron g factor [ ]                                     -2.00231930436220E+00
 Proton mass [kg]                                           1.67262163700000E-27
 Fine-structure constant                                    7.29735253760000E-03
 Rydberg constant [1/m]                                     1.09737315685270E+07
 Avogadro constant [1/mol]                                  6.02214179000000E+23
 Boltzmann constant [J/K]                                   1.38065040000000E-23
 Atomic mass unit [kg]                                      1.66053878200000E-27
 Bohr radius [m]                                            5.29177208590000E-11

 *** Conversion factors ***

 [u] -> [a.u.]                                              1.82288848426455E+03
 [Angstrom] -> [Bohr] = [a.u.]                              1.88972613288564E+00
 [a.u.] = [Bohr] -> [Angstrom]                              5.29177208590000E-01
 [a.u.] -> [s]                                              2.41888432650478E-17
 [a.u.] -> [fs]                                             2.41888432650478E-02
 [a.u.] -> [J]                                              4.35974393937059E-18
 [a.u.] -> [K]                                              3.15774647902944E+05
 [a.u.] -> [kJ/mol]                                         2.62549961709828E+03
 [a.u.] -> [kcal/mol]                                       6.27509468713739E+02
 [a.u.] -> [Pa]                                             2.94210107994716E+13
 [a.u.] -> [bar]                                            2.94210107994716E+08
 [a.u.] -> [atm]                                            2.90362800883016E+08
 [a.u.] -> [eV]                                             2.72113838565563E+01
 [a.u.] -> [Hz]                                             6.57968392072181E+15
 [a.u.] -> [1/cm] (wave numbers)                            2.19474631370540E+05
 [a.u./Bohr**2] -> [1/cm]                                   5.14048714338585E+03
 

 PW_GRID: Information for grid number                                          1
 PW_GRID: Cutoff [a.u.]                                                      4.4
 PW_GRID: spherical cutoff:                                                   NO
 PW_GRID:   Bounds   1              0      49                Points:          50
 PW_GRID:   Bounds   2              0      49                Points:          50
 PW_GRID:   Bounds   3              0      49                Points:          50
 PW_GRID: Volume element (a.u.^3)   1.063         Volume (a.u.^3)    132827.4696
 PW_GRID: Grid span                                                    HALFSPACE

 CELL| Volume [angstrom^3]:                                            19683.000
 CELL| Vector a [angstrom]:      27.000     0.000     0.000    |a| =      27.000
 CELL| Vector b [angstrom]:       0.000    27.000     0.000    |b| =      27.000
 CELL| Vector c [angstrom]:       0.000     0.000    27.000    |c| =      27.000
 CELL| Angle (b,c), alpha [degree]:                                       90.000
 CELL| Angle (a,c), beta  [degree]:                                       90.000
 CELL| Angle (a,b), gamma [degree]:                                       90.000
 CELL| Orthorhombic:                                                         YES

 CELL_REF| Volume [angstrom^3]:                                        19683.000
 CELL_REF| Vector a [angstrom    27.000     0.000     0.000    |a| =      27.000
 CELL_REF| Vector b [angstrom     0.000    27.000     0.000    |b| =      27.000
 CELL_REF| Vector c [angstrom     0.000     0.000    27.000    |c| =      27.000
 CELL_REF| Angle (b,c), alpha [degree]:                                   90.000
 CELL_REF| Angle (a,c), beta  [degree]:                                   90.000
 CELL_REF| Angle (a,b), gamma [degree]:                                   90.000
 CELL_REF| Orthorhombic:                                                     YES

 CELL_TOP| Volume [angstrom^3]:                                        19683.000
 CELL_TOP| Vector a [angstrom    27.000     0.000     0.000    |a| =      27.000
 CELL_TOP| Vector b [angstrom     0.000    27.000     0.000    |b| =      27.000
 CELL_TOP| Vector c [angstrom     0.000     0.000    27.000    |c| =      27.000
 CELL_TOP| Angle (b,c), alpha [degree]:                                   90.000
 CELL_TOP| Angle (a,c), beta  [degree]:                                   90.000
 CELL_TOP| Angle (a,b), gamma [degree]:                                   90.000
 CELL_TOP| Orthorhombic:                                                     YES

 GENERATE|  Preliminary Number of Bonds generated:                             0
 GENERATE|  Achieved consistency in connectivity generation.

 *******************************************************************************
 *******************************************************************************
 **                                                                           **
 **     #####                         ##              ##                      **
 **    ##   ##            ##          ##              ##                      **
 **   ##     ##                       ##            ######                    **
 **   ##     ##  ##   ##  ##   #####  ##  ##   ####   ##    #####    #####    **
 **   ##     ##  ##   ##  ##  ##      ## ##   ##      ##   ##   ##  ##   ##   **
 **   ##  ## ##  ##   ##  ##  ##      ####     ###    ##   ######   ######    **
 **    ##  ###   ##   ##  ##  ##      ## ##      ##   ##   ##       ##        **
 **     #######   #####   ##   #####  ##  ##  ####    ##    #####   ##        **
 **           ##                                                    ##        **
 **                                                                           **
 **                                                ... make the atoms dance   **
 **                                                                           **
 **            Copyright (C) by CP2K Developers Group (2000 - 2013)           **
 **                                                                           **
 *******************************************************************************

 DFT| Spin unrestricted (spin-polarized) Kohn-Sham calculation               UKS
 DFT| Multiplicity                                                             1
 DFT| Number of spin states                                                    2
 DFT| Charge                                                                   0
 DFT| Self-interaction correction (SIC)                                       NO
 DFT| Cutoffs: density                                              1.000000E-10
 DFT|          gradient                                             1.000000E-10
 DFT|          tau                                                  1.000000E-10
 DFT|          cutoff_smoothing_range                               0.000000E+00
 DFT| XC density smoothing                                                  NONE
 DFT| XC derivatives                                                          PW
 FUNCTIONAL| ROUTINE=NEW
 FUNCTIONAL| PBE:
 FUNCTIONAL| J.P.Perdew, K.Burke, M.Ernzerhof, Phys. Rev. Letter, vol. 77, n 18,
 FUNCTIONAL|  pp. 3865-3868, (1996){spin polarized}
 vdW POTENTIAL|                                                   Pair Potential
 vdW POTENTIAL|          Potential Form: S. Grimme et al, JCP 132: 154104 (2010)
 vdW POTENTIAL|          Cutoff Radius [Bohr]:                             22.68
 vdW POTENTIAL|          s6 Scaling Factor:                               1.0000
 vdW POTENTIAL|          sr6 Scaling Factor:                              1.2170
 vdW POTENTIAL|          s8 Scaling Factor:                               0.7220
 vdW POTENTIAL|          Cutoff for CN calculation:                   0.1000E-05

 QS| Method:                                                                GAPW
 QS| Density plane wave grid type                        NON-SPHERICAL FULLSPACE
 QS| Number of grid levels:                                                    4
 QS| Density cutoff [a.u.]:                                                150.0
 QS| Multi grid cutoff [a.u.]: 1) grid level                               150.0
 QS|                           2) grid level                                50.0
 QS|                           3) grid level                                16.7
 QS|                           4) grid level                                 5.6
 QS| Grid level progression factor:                                          3.0
 QS| Relative density cutoff [a.u.]:                                        15.0
 QS| Consistent realspace mapping and integration 
 QS| Interaction thresholds: eps_pgf_orb:                                1.0E-05
 QS|                         eps_filter_matrix:                          0.0E+00
 QS|                         eps_core_charge:                            1.0E-12
 QS|                         eps_rho_gspace:                             1.0E-10
 QS|                         eps_rho_rspace:                             1.0E-10
 QS|                         eps_gvg_rspace:                             1.0E-05
 QS|                         eps_ppl:                                    1.0E-02
 QS|                         eps_ppnl:                                   1.0E-07
 QS| GAPW|                   eps_fit:                                    1.0E-04
 QS| GAPW|                   eps_iso:                                    1.0E-12
 QS| GAPW|                   eps_svd:                                    1.0E-08
 QS| GAPW|                   eps_cpc:                                    1.0E-10
 QS| GAPW|   atom-r-grid: quadrature:                 GC_LOG                        
 QS| GAPW|      atom-s-grid:  max l :                                          4
 QS| GAPW|      max_l_rho0 :                                                   2


 ATOMIC KIND INFORMATION

  1. Atomic kind: C                                     Number of atoms:       1

     Orbital Basis Set                                           DZVP-MOLOPT-GTH

       Number of orbital shell sets:                                           1
       Number of orbital shells:                                               5
       Number of primitive Cartesian functions:                                7
       Number of Cartesian basis functions:                                   14
       Number of spherical basis functions:                                   13
       Norm type:                                                              2

       Normalised Cartesian orbitals:

                        Set   Shell   Orbital            Exponent    Coefficient

                          1       1    2s                6.132625      -0.263661
                                                         2.625196      -0.231112
                                                         1.045457       0.042712
                                                         0.478316       0.306085
                                                         0.178617       0.065483
                                                         0.075145       0.000568
                                                         0.030287       0.000417

                          1       2    3s                6.132625       0.131937
                                                         2.625196       0.414269
                                                         1.045457      -0.593590
                                                         0.478316       0.644922
                                                         0.178617       0.069203
                                                         0.075145      -0.145101
                                                         0.030287       0.008247

                          1       3    3px               6.132625       0.562677
                                                         2.625196       0.633910
                                                         1.045457       0.379157
                                                         0.478316       0.235193
                                                         0.178617       0.052379
                                                         0.075145       0.003677
                                                         0.030287       0.000105
                          1       3    3py               6.132625       0.562677
                                                         2.625196       0.633910
                                                         1.045457       0.379157
                                                         0.478316       0.235193
                                                         0.178617       0.052379
                                                         0.075145       0.003677
                                                         0.030287       0.000105
                          1       3    3pz               6.132625       0.562677
                                                         2.625196       0.633910
                                                         1.045457       0.379157
                                                         0.478316       0.235193
                                                         0.178617       0.052379
                                                         0.075145       0.003677
                                                         0.030287       0.000105

                          1       4    4px               6.132625      -0.472364
                                                         2.625196      -0.221326
                                                         1.045457      -0.481781
                                                         0.478316       0.135466
                                                         0.178617       0.072281
                                                         0.075145       0.024920
                                                         0.030287       0.002706
                          1       4    4py               6.132625      -0.472364
                                                         2.625196      -0.221326
                                                         1.045457      -0.481781
                                                         0.478316       0.135466
                                                         0.178617       0.072281
                                                         0.075145       0.024920
                                                         0.030287       0.002706
                          1       4    4pz               6.132625      -0.472364
                                                         2.625196      -0.221326
                                                         1.045457      -0.481781
                                                         0.478316       0.135466
                                                         0.178617       0.072281
                                                         0.075145       0.024920
                                                         0.030287       0.002706

                          1       5    4dx2              6.132625       0.874783
                                                         2.625196       0.375772
                                                         1.045457       0.653959
                                                         0.478316       0.191007
                                                         0.178617       0.018656
                                                         0.075145       0.003649
                                                         0.030287      -0.000011
                          1       5    4dxy              6.132625       1.515169
                                                         2.625196       0.650856
                                                         1.045457       1.132690
                                                         0.478316       0.330834
                                                         0.178617       0.032314
                                                         0.075145       0.006321
                                                         0.030287      -0.000019
                          1       5    4dxz              6.132625       1.515169
                                                         2.625196       0.650856
                                                         1.045457       1.132690
                                                         0.478316       0.330834
                                                         0.178617       0.032314
                                                         0.075145       0.006321
                                                         0.030287      -0.000019
                          1       5    4dy2              6.132625       0.874783
                                                         2.625196       0.375772
                                                         1.045457       0.653959
                                                         0.478316       0.191007
                                                         0.178617       0.018656
                                                         0.075145       0.003649
                                                         0.030287      -0.000011
                          1       5    4dyz              6.132625       1.515169
                                                         2.625196       0.650856
                                                         1.045457       1.132690
                                                         0.478316       0.330834
                                                         0.178617       0.032314
                                                         0.075145       0.006321
                                                         0.030287      -0.000019
                          1       5    4dz2              6.132625       0.874783
                                                         2.625196       0.375772
                                                         1.045457       0.653959
                                                         0.478316       0.191007
                                                         0.178617       0.018656
                                                         0.075145       0.003649
                                                         0.030287      -0.000011

     The atoms of this atomic kind are PAW atoms (GAPW):
       Hard Gaussian function radius:                                      1.512
       Rho0 radius:                                                        1.512
       Maximum GTO radius used for PAW projector construction:            24.566

     GAPW Soft Basis Set                                    DZVP-MOLOPT-GTH_soft

       Number of orbital shell sets:                                           1
       Number of orbital shells:                                               5
       Number of primitive Cartesian functions:                                6
       Number of Cartesian basis functions:                                   14
       Number of spherical basis functions:                                   13
       Norm type:                                                              2

       Normalised Cartesian orbitals:

                        Set   Shell   Orbital            Exponent    Coefficient

                          1       1    2s                2.625196      -0.231112
                                                         1.045457       0.042712
                                                         0.478316       0.306085
                                                         0.178617       0.065483
                                                         0.075145       0.000568
                                                         0.030287       0.000417

                          1       2    3s                2.625196       0.414269
                                                         1.045457      -0.593590
                                                         0.478316       0.644922
                                                         0.178617       0.069203
                                                         0.075145      -0.145101
                                                         0.030287       0.008247

                          1       3    3px               2.625196       0.633910
                                                         1.045457       0.379157
                                                         0.478316       0.235193
                                                         0.178617       0.052379
                                                         0.075145       0.003677
                                                         0.030287       0.000105
                          1       3    3py               2.625196       0.633910
                                                         1.045457       0.379157
                                                         0.478316       0.235193
                                                         0.178617       0.052379
                                                         0.075145       0.003677
                                                         0.030287       0.000105
                          1       3    3pz               2.625196       0.633910
                                                         1.045457       0.379157
                                                         0.478316       0.235193
                                                         0.178617       0.052379
                                                         0.075145       0.003677
                                                         0.030287       0.000105

                          1       4    4px               2.625196      -0.221326
                                                         1.045457      -0.481781
                                                         0.478316       0.135466
                                                         0.178617       0.072281
                                                         0.075145       0.024920
                                                         0.030287       0.002706
                          1       4    4py               2.625196      -0.221326
                                                         1.045457      -0.481781
                                                         0.478316       0.135466
                                                         0.178617       0.072281
                                                         0.075145       0.024920
                                                         0.030287       0.002706
                          1       4    4pz               2.625196      -0.221326
                                                         1.045457      -0.481781
                                                         0.478316       0.135466
                                                         0.178617       0.072281
                                                         0.075145       0.024920
                                                         0.030287       0.002706

                          1       5    4dx2              2.625196       0.375772
                                                         1.045457       0.653959
                                                         0.478316       0.191007
                                                         0.178617       0.018656
                                                         0.075145       0.003649
                                                         0.030287      -0.000011
                          1       5    4dxy              2.625196       0.650856
                                                         1.045457       1.132690
                                                         0.478316       0.330834
                                                         0.178617       0.032314
                                                         0.075145       0.006321
                                                         0.030287      -0.000019
                          1       5    4dxz              2.625196       0.650856
                                                         1.045457       1.132690
                                                         0.478316       0.330834
                                                         0.178617       0.032314
                                                         0.075145       0.006321
                                                         0.030287      -0.000019
                          1       5    4dy2              2.625196       0.375772
                                                         1.045457       0.653959
                                                         0.478316       0.191007
                                                         0.178617       0.018656
                                                         0.075145       0.003649
                                                         0.030287      -0.000011
                          1       5    4dyz              2.625196       0.650856
                                                         1.045457       1.132690
                                                         0.478316       0.330834
                                                         0.178617       0.032314
                                                         0.075145       0.006321
                                                         0.030287      -0.000019
                          1       5    4dz2              2.625196       0.375772
                                                         1.045457       0.653959
                                                         0.478316       0.191007
                                                         0.178617       0.018656
                                                         0.075145       0.003649
                                                         0.030287      -0.000011

     Potential information for                                        GTH-PBE-q4

       Description:                       Goedecker-Teter-Hutter pseudopotential
                                           Goedecker et al., PRB 54, 1703 (1996)
                                          Hartwigsen et al., PRB 58, 3641 (1998)
                                                      Krack, TCA 114, 145 (2005)

       Gaussian exponent of the core charge distribution:               4.364419
       Electronic configuration (s p d ...):                               2   2

       Parameters of the local part of the GTH pseudopotential:

                          rloc        C1          C2          C3          C4
                        0.338471   -8.803674    1.339211

       Parameters of the non-local part of the GTH pseudopotential:

                   l      r(l)      h(i,j,l)

                   0    0.302576    9.622487
                   1    0.291507

  2. Atomic kind: O                                     Number of atoms:       2

     Orbital Basis Set                                           DZVP-MOLOPT-GTH

       Number of orbital shell sets:                                           1
       Number of orbital shells:                                               5
       Number of primitive Cartesian functions:                                7
       Number of Cartesian basis functions:                                   14
       Number of spherical basis functions:                                   13
       Norm type:                                                              2

       Normalised Cartesian orbitals:

                        Set   Shell   Orbital            Exponent    Coefficient

                          1       1    2s               12.015955      -0.284499
                                                         5.108150      -0.322498
                                                         2.048398       0.148191
                                                         0.832382       0.295475
                                                         0.352316       0.150829
                                                         0.142977       0.015788
                                                         0.046761      -0.000019

                          1       2    3s               12.015955       0.725622
                                                         5.108150       0.644384
                                                         2.048398      -0.157350
                                                         0.832382      -0.853528
                                                         0.352316       0.146068
                                                         0.142977       0.153978
                                                         0.046761       0.000658

                          1       3    3px              12.015955       1.192141
                                                         5.108150       1.354170
                                                         2.048398       0.897267
                                                         0.832382       0.408839
                                                         0.352316       0.116648
                                                         0.142977       0.022184
                                                         0.046761       0.000308
                          1       3    3py              12.015955       1.192141
                                                         5.108150       1.354170
                                                         2.048398       0.897267
                                                         0.832382       0.408839
                                                         0.352316       0.116648
                                                         0.142977       0.022184
                                                         0.046761       0.000308
                          1       3    3pz              12.015955       1.192141
                                                         5.108150       1.354170
                                                         2.048398       0.897267
                                                         0.832382       0.408839
                                                         0.352316       0.116648
                                                         0.142977       0.022184
                                                         0.046761       0.000308

                          1       4    4px              12.015955      -1.062381
                                                         5.108150      -1.285791
                                                         2.048398      -0.727000
                                                         0.832382      -0.522764
                                                         0.352316       0.182681
                                                         0.142977       0.087560
                                                         0.046761       0.000981
                          1       4    4py              12.015955      -1.062381
                                                         5.108150      -1.285791
                                                         2.048398      -0.727000
                                                         0.832382      -0.522764
                                                         0.352316       0.182681
                                                         0.142977       0.087560
                                                         0.046761       0.000981
                          1       4    4pz              12.015955      -1.062381
                                                         5.108150      -1.285791
                                                         2.048398      -0.727000
                                                         0.832382      -0.522764
                                                         0.352316       0.182681
                                                         0.142977       0.087560
                                                         0.046761       0.000981

                          1       5    4dx2             12.015955       1.125955
                                                         5.108150       1.160468
                                                         2.048398       0.999335
                                                         0.832382       0.756334
                                                         0.352316       0.048604
                                                         0.142977       0.010378
                                                         0.046761      -0.000027
                          1       5    4dxy             12.015955       1.950212
                                                         5.108150       2.009990
                                                         2.048398       1.730899
                                                         0.832382       1.310009
                                                         0.352316       0.084185
                                                         0.142977       0.017974
                                                         0.046761      -0.000046
                          1       5    4dxz             12.015955       1.950212
                                                         5.108150       2.009990
                                                         2.048398       1.730899
                                                         0.832382       1.310009
                                                         0.352316       0.084185
                                                         0.142977       0.017974
                                                         0.046761      -0.000046
                          1       5    4dy2             12.015955       1.125955
                                                         5.108150       1.160468
                                                         2.048398       0.999335
                                                         0.832382       0.756334
                                                         0.352316       0.048604
                                                         0.142977       0.010378
                                                         0.046761      -0.000027
                          1       5    4dyz             12.015955       1.950212
                                                         5.108150       2.009990
                                                         2.048398       1.730899
                                                         0.832382       1.310009
                                                         0.352316       0.084185
                                                         0.142977       0.017974
                                                         0.046761      -0.000046
                          1       5    4dz2             12.015955       1.125955
                                                         5.108150       1.160468
                                                         2.048398       0.999335
                                                         0.832382       0.756334
                                                         0.352316       0.048604
                                                         0.142977       0.010378
                                                         0.046761      -0.000027

     The atoms of this atomic kind are PAW atoms (GAPW):
       Hard Gaussian function radius:                                      1.512
       Rho0 radius:                                                        1.512
       Maximum GTO radius used for PAW projector construction:            24.566

     GAPW Soft Basis Set                                    DZVP-MOLOPT-GTH_soft

       Number of orbital shell sets:                                           1
       Number of orbital shells:                                               5
       Number of primitive Cartesian functions:                                5
       Number of Cartesian basis functions:                                   14
       Number of spherical basis functions:                                   13
       Norm type:                                                              2

       Normalised Cartesian orbitals:

                        Set   Shell   Orbital            Exponent    Coefficient

                          1       1    2s                2.048398       0.148191
                                                         0.832382       0.295475
                                                         0.352316       0.150829
                                                         0.142977       0.015788
                                                         0.046761      -0.000019

                          1       2    3s                2.048398      -0.157350
                                                         0.832382      -0.853528
                                                         0.352316       0.146068
                                                         0.142977       0.153978
                                                         0.046761       0.000658

                          1       3    3px               2.048398       0.897267
                                                         0.832382       0.408839
                                                         0.352316       0.116648
                                                         0.142977       0.022184
                                                         0.046761       0.000308
                          1       3    3py               2.048398       0.897267
                                                         0.832382       0.408839
                                                         0.352316       0.116648
                                                         0.142977       0.022184
                                                         0.046761       0.000308
                          1       3    3pz               2.048398       0.897267
                                                         0.832382       0.408839
                                                         0.352316       0.116648
                                                         0.142977       0.022184
                                                         0.046761       0.000308

                          1       4    4px               2.048398      -0.727000
                                                         0.832382      -0.522764
                                                         0.352316       0.182681
                                                         0.142977       0.087560
                                                         0.046761       0.000981
                          1       4    4py               2.048398      -0.727000
                                                         0.832382      -0.522764
                                                         0.352316       0.182681
                                                         0.142977       0.087560
                                                         0.046761       0.000981
                          1       4    4pz               2.048398      -0.727000
                                                         0.832382      -0.522764
                                                         0.352316       0.182681
                                                         0.142977       0.087560
                                                         0.046761       0.000981

                          1       5    4dx2              2.048398       0.999335
                                                         0.832382       0.756334
                                                         0.352316       0.048604
                                                         0.142977       0.010378
                                                         0.046761      -0.000027
                          1       5    4dxy              2.048398       1.730899
                                                         0.832382       1.310009
                                                         0.352316       0.084185
                                                         0.142977       0.017974
                                                         0.046761      -0.000046
                          1       5    4dxz              2.048398       1.730899
                                                         0.832382       1.310009
                                                         0.352316       0.084185
                                                         0.142977       0.017974
                                                         0.046761      -0.000046
                          1       5    4dy2              2.048398       0.999335
                                                         0.832382       0.756334
                                                         0.352316       0.048604
                                                         0.142977       0.010378
                                                         0.046761      -0.000027
                          1       5    4dyz              2.048398       1.730899
                                                         0.832382       1.310009
                                                         0.352316       0.084185
                                                         0.142977       0.017974
                                                         0.046761      -0.000046
                          1       5    4dz2              2.048398       0.999335
                                                         0.832382       0.756334
                                                         0.352316       0.048604
                                                         0.142977       0.010378
                                                         0.046761      -0.000027

     Potential information for                                        GTH-PBE-q6

       Description:                       Goedecker-Teter-Hutter pseudopotential
                                           Goedecker et al., PRB 54, 1703 (1996)
                                          Hartwigsen et al., PRB 58, 3641 (1998)
                                                      Krack, TCA 114, 145 (2005)

       Gaussian exponent of the core charge distribution:               8.360253
       Electronic configuration (s p d ...):                               2   4

       Parameters of the local part of the GTH pseudopotential:

                          rloc        C1          C2          C3          C4
                        0.244554  -16.667215    2.487311

       Parameters of the non-local part of the GTH pseudopotential:

                   l      r(l)      h(i,j,l)

                   0    0.220956   18.337458
                   1    0.211332


 MOLECULE KIND INFORMATION


 All atoms are their own molecule, skipping detailed information


 TOTAL NUMBERS AND MAXIMUM NUMBERS

  Total number of            - Atomic kinds:                                   2
                             - Atoms:                                          3
                             - Shell sets:                                     3
                             - Shells:                                        15
                             - Primitive Cartesian functions:                 21
                             - Cartesian basis functions:                     42
                             - Spherical basis functions:                     39

  Maximum angular momentum of- Orbital basis functions:                        2
                             - Local part of the GTH pseudopotential:          2
                             - Non-local part of the GTH pseudopotential:      0


 MODULE QUICKSTEP:  ATOMIC COORDINATES IN angstrom

  Atom  Kind  Element       X           Y           Z          Z(eff)       Mass

       1     1 C    6   13.502110   13.502110   13.438435      4.00      12.0107
       2     2 O    8   14.340570   14.340570   13.560945      6.00      15.9994
       3     2 O    8   12.659430   12.659430   13.561565      6.00      15.9994




 SCF PARAMETERS         Density guess:                                    ATOMIC
                        --------------------------------------------------------
                        max_scf:                                             400
                        max_scf_history:                                       0
                        max_diis:                                              4
                        --------------------------------------------------------
                        eps_scf:                                        1.00E-07
                        eps_scf_history:                                0.00E+00
                        eps_diis:                                       1.00E-01
                        eps_eigval:                                     1.00E-05
                        --------------------------------------------------------
                        level_shift [a.u.]:                                 0.00
                        --------------------------------------------------------
                        No outer SCF

 PW_GRID: Information for grid number                                          2
 PW_GRID: Grid distributed over                                    32 processors
 PW_GRID: Real space group dimensions                                    32    1
 PW_GRID: the grid is blocked:                                                NO
 PW_GRID: Cutoff [a.u.]                                                    150.0
 PW_GRID: spherical cutoff:                                                   NO
 PW_GRID:   Bounds   1           -144     143                Points:         288
 PW_GRID:   Bounds   2           -144     143                Points:         288
 PW_GRID:   Bounds   3           -144     143                Points:         288
 PW_GRID: Volume element (a.u.^3)  0.5560E-02     Volume (a.u.^3)    132827.4696
 PW_GRID: Grid span                                                    FULLSPACE
 PW_GRID:   Distribution                         Average         Max         Min
 PW_GRID:   G-Vectors                           746496.0      746496      746496
 PW_GRID:   G-Rays                                2592.0        2592        2592
 PW_GRID:   Real Space Points                   746496.0      746496      746496

 PW_GRID: Information for grid number                                          3
 PW_GRID: Grid distributed over                                    32 processors
 PW_GRID: Real space group dimensions                                    32    1
 PW_GRID: the grid is blocked:                                                NO
 PW_GRID: Cutoff [a.u.]                                                     50.0
 PW_GRID: spherical cutoff:                                                   NO
 PW_GRID:   Bounds   1            -90      89                Points:         180
 PW_GRID:   Bounds   2            -90      89                Points:         180
 PW_GRID:   Bounds   3            -90      89                Points:         180
 PW_GRID: Volume element (a.u.^3)  0.2278E-01     Volume (a.u.^3)    132827.4696
 PW_GRID: Grid span                                                    FULLSPACE
 PW_GRID:   Distribution                         Average         Max         Min
 PW_GRID:   G-Vectors                           182250.0      182520      181980
 PW_GRID:   G-Rays                                1012.5        1014        1011
 PW_GRID:   Real Space Points                   182250.0      194400      162000

 PW_GRID: Information for grid number                                          4
 PW_GRID: Grid distributed over                                    32 processors
 PW_GRID: Real space group dimensions                                    32    1
 PW_GRID: the grid is blocked:                                                NO
 PW_GRID: Cutoff [a.u.]                                                     16.7
 PW_GRID: spherical cutoff:                                                   NO
 PW_GRID:   Bounds   1            -48      47                Points:          96
 PW_GRID:   Bounds   2            -48      47                Points:          96
 PW_GRID:   Bounds   3            -48      47                Points:          96
 PW_GRID: Volume element (a.u.^3)  0.1501         Volume (a.u.^3)    132827.4696
 PW_GRID: Grid span                                                    FULLSPACE
 PW_GRID:   Distribution                         Average         Max         Min
 PW_GRID:   G-Vectors                            27648.0       27936       27456
 PW_GRID:   G-Rays                                 288.0         291         286
 PW_GRID:   Real Space Points                    27648.0       27648       27648

 PW_GRID: Information for grid number                                          5
 PW_GRID: Grid distributed over                                    32 processors
 PW_GRID: Real space group dimensions                                    32    1
 PW_GRID: the grid is blocked:                                                NO
 PW_GRID: Cutoff [a.u.]                                                      5.6
 PW_GRID: spherical cutoff:                                                   NO
 PW_GRID:   Bounds   1            -30      29                Points:          60
 PW_GRID:   Bounds   2            -30      29                Points:          60
 PW_GRID:   Bounds   3            -30      29                Points:          60
 PW_GRID: Volume element (a.u.^3)  0.6149         Volume (a.u.^3)    132827.4696
 PW_GRID: Grid span                                                    FULLSPACE
 PW_GRID:   Distribution                         Average         Max         Min
 PW_GRID:   G-Vectors                             6750.0        6780        6720
 PW_GRID:   G-Rays                                 112.5         113         112
 PW_GRID:   Real Space Points                     6750.0        7200        3600

 RS_GRID: Information for grid number                                          2
 RS_GRID:   Bounds   1           -144     143                Points:         288
 RS_GRID:   Bounds   2           -144     143                Points:         288
 RS_GRID:   Bounds   3           -144     143                Points:         288
 RS_GRID: Real space distribution over                                  2 groups
 RS_GRID: Real space distribution along direction                              1
 RS_GRID: Border size                                                         18
 RS_GRID: Real space distribution over                                  4 groups
 RS_GRID: Real space distribution along direction                              2
 RS_GRID: Border size                                                         18
 RS_GRID: Real space distribution over                                  4 groups
 RS_GRID: Real space distribution along direction                              3
 RS_GRID: Border size                                                         18
 RS_GRID:   Distribution                         Average         Max         Min
 RS_GRID:   Planes                                 180.0         180         180
 RS_GRID:   Distribution                         Average         Max         Min
 RS_GRID:   Planes                                 108.0         108         108
 RS_GRID:   Distribution                         Average         Max         Min
 RS_GRID:   Planes                                 108.0         108         108

 RS_GRID: Information for grid number                                          3
 RS_GRID:   Bounds   1            -90      89                Points:         180
 RS_GRID:   Bounds   2            -90      89                Points:         180
 RS_GRID:   Bounds   3            -90      89                Points:         180
 RS_GRID: Real space distribution over                                  2 groups
 RS_GRID: Real space distribution along direction                              1
 RS_GRID: Border size                                                         20
 RS_GRID: Real space distribution over                                  4 groups
 RS_GRID: Real space distribution along direction                              2
 RS_GRID: Border size                                                         20
 RS_GRID: Real space distribution over                                  4 groups
 RS_GRID: Real space distribution along direction                              3
 RS_GRID: Border size                                                         20
 RS_GRID:   Distribution                         Average         Max         Min
 RS_GRID:   Planes                                 130.0         130         130
 RS_GRID:   Distribution                         Average         Max         Min
 RS_GRID:   Planes                                  85.0          85          85
 RS_GRID:   Distribution                         Average         Max         Min
 RS_GRID:   Planes                                  85.0          85          85

 RS_GRID: Information for grid number                                          4
 RS_GRID:   Bounds   1            -48      47                Points:          96
 RS_GRID:   Bounds   2            -48      47                Points:          96
 RS_GRID:   Bounds   3            -48      47                Points:          96
 RS_GRID: Real space fully replicated
 RS_GRID: Group size                                                           1

 RS_GRID: Information for grid number                                          5
 RS_GRID:   Bounds   1            -30      29                Points:          60
 RS_GRID:   Bounds   2            -30      29                Points:          60
 RS_GRID:   Bounds   3            -30      29                Points:          60
 RS_GRID: Real space fully replicated
 RS_GRID: Group size                                                           1

 DISTRIBUTION OF THE PARTICLES (ROWS)
              Process row      Number of particles         Number of matrix rows
                        0                        2                            -1
                        1                        1                            -1
                        2                        0                            -1
                        3                        0                            -1
                      Sum                        3                            -1

 DISTRIBUTION OF THE PARTICLES (COLUMNS)
              Process col      Number of particles      Number of matrix columns
                        0                        1                            -1
                        1                        1                            -1
                        2                        0                            -1
                        3                        1                            -1
                        4                        0                            -1
                        5                        0                            -1
                        6                        0                            -1
                        7                        0                            -1
                      Sum                        3                            -1

 *******************************************************************************
 ***                     STARTING GEOMETRY OPTIMIZATION                      ***
 ***                                   BFGS                                  ***
 *******************************************************************************

 DISTRIBUTION OF THE NEIGHBOR LISTS
              Total number of particle pairs:                                  6
              Total number of matrix elements:                              1014
              Average number of particle pairs:                                1
              Maximum number of particle pairs:                                2
              Average number of matrix element:                               32
              Maximum number of matrix elements:                             338


 DISTRIBUTION OF THE OVERLAP MATRIX
              Number  of non-zero blocks:                                      6
              Percentage non-zero blocks:                                 100.00
              Average number of blocks per CPU:                                1
              Maximum number of blocks per CPU:                                2
              Average number of matrix elements per CPU:                      32
              Maximum number of matrix elements per CPU:                     338

 Spin 1

 Number of electrons:                                                          8
 Number of occupied orbitals:                                                  8
 Number of molecular orbitals:                                                 8

 Spin 2

 Number of electrons:                                                          8
 Number of occupied orbitals:                                                  8
 Number of molecular orbitals:                                                 8

 Number of orbital functions:                                                 39
 Number of independent orbital functions:                                     39

 Extrapolation method: initial_guess

 Atomic guess: The first density matrix is obtained in terms of atomic orbitals
               and electronic configurations assigned to each atomic kind

 Spin 1

 Guess for atomic kind: C

 Electronic structure
    Total number of core electrons                                          2.00
    Total number of valence electrons                                       4.00
    Total number of electrons                                               6.00
    Multiplicity                                                   not specified
    S   [  2.00] 2.00
    P      2.00


 *******************************************************************************
                  Iteration          Convergence                     Energy [au]
 *******************************************************************************
                          1        0.398502                      -5.115479719898
                          2        0.205015                      -5.202300061893
                          3        0.140452E-02                  -5.228968043896
                          4        0.598853E-04                  -5.228969181319
                          5        0.331454E-04                  -5.228969182739
                          6        0.231280E-04                  -5.228969183061
                          7        0.309326E-07                  -5.228969183366

 Energy components [Hartree]           Total Energy ::           -5.228969183366
                                        Band Energy ::           -1.112012670394
                                     Kinetic Energy ::            3.667653037961
                                   Potential Energy ::           -8.896622221327
                                      Virial (-V/T) ::            2.425698976769
                                        Core Energy ::           -8.354438134793
                                          XC Energy ::           -1.430507557558
                                     Coulomb Energy ::            4.555976508984
                       Total Pseudopotential Energy ::          -12.054077251973
                       Local Pseudopotential Energy ::          -12.576064048928
                    Nonlocal Pseudopotential Energy ::            0.521986796955
                                        Confinement ::            0.319860792185

 Orbital energies  State     L     Occupation   Energy[a.u.]          Energy[eV]

                       1     0          2.000      -0.418938          -11.399892

                       1     1          2.000      -0.137068           -3.729810


 Guess for atomic kind: O

 Electronic structure
    Total number of core electrons                                          2.00
    Total number of valence electrons                                       6.00
    Total number of electrons                                               8.00
    Multiplicity                                                   not specified
    S   [  2.00] 2.00
    P      4.00


 *******************************************************************************
                  Iteration          Convergence                     Energy [au]
 *******************************************************************************
                          1         1.59807                     -14.860601438858
                          2         2.10429                     -14.911792617606
                          3        0.907503E-01                 -15.655516752884
                          4        0.288621E-02                 -15.656865750737
                          5        0.119119E-02                 -15.656866873291
                          6        0.740468E-03                 -15.656867014560
                          7        0.292240E-04                 -15.656867103307
                          8        0.185245E-06                 -15.656867103452

 Energy components [Hartree]           Total Energy ::          -15.656867103452
                                        Band Energy ::           -3.000198979664
                                     Kinetic Energy ::           11.759972915296
                                   Potential Energy ::          -27.416840018748
                                      Virial (-V/T) ::            2.331369316598
                                        Core Energy ::          -26.140717222249
                                          XC Energy ::           -3.154051243207
                                     Coulomb Energy ::           13.637901362004
                       Total Pseudopotential Energy ::          -37.935784258805
                       Local Pseudopotential Energy ::          -39.218909979177
                    Nonlocal Pseudopotential Energy ::            1.283125720372
                                        Confinement ::            0.350941212594

 Orbital energies  State     L     Occupation   Energy[a.u.]          Energy[eV]

                       1     0          2.000      -0.864472          -23.523467

                       1     1          4.000      -0.317814           -8.648158

 Re-scaling the density matrix to get the right number of electrons for spin 1
                  # Electrons              Trace(P)               Scaling factor
                            8                 8.000                        1.000

 Spin 2

 Guess for atomic kind: C

 Electronic structure
    Total number of core electrons                                          2.00
    Total number of valence electrons                                       4.00
    Total number of electrons                                               6.00
    Multiplicity                                                   not specified
    S   [  2.00] 2.00
    P      2.00


 *******************************************************************************
                  Iteration          Convergence                     Energy [au]
 *******************************************************************************
                          1        0.398502                      -5.115479719898
                          2        0.205015                      -5.202300061893
                          3        0.140452E-02                  -5.228968043896
                          4        0.598853E-04                  -5.228969181319
                          5        0.331454E-04                  -5.228969182739
                          6        0.231280E-04                  -5.228969183061
                          7        0.309326E-07                  -5.228969183366

 Energy components [Hartree]           Total Energy ::           -5.228969183366
                                        Band Energy ::           -1.112012670394
                                     Kinetic Energy ::            3.667653037961
                                   Potential Energy ::           -8.896622221327
                                      Virial (-V/T) ::            2.425698976769
                                        Core Energy ::           -8.354438134793
                                          XC Energy ::           -1.430507557558
                                     Coulomb Energy ::            4.555976508984
                       Total Pseudopotential Energy ::          -12.054077251973
                       Local Pseudopotential Energy ::          -12.576064048928
                    Nonlocal Pseudopotential Energy ::            0.521986796955
                                        Confinement ::            0.319860792185

 Orbital energies  State     L     Occupation   Energy[a.u.]          Energy[eV]

                       1     0          2.000      -0.418938          -11.399892

                       1     1          2.000      -0.137068           -3.729810


 Guess for atomic kind: O

 Electronic structure
    Total number of core electrons                                          2.00
    Total number of valence electrons                                       6.00
    Total number of electrons                                               8.00
    Multiplicity                                                   not specified
    S   [  2.00] 2.00
    P      4.00


 *******************************************************************************
                  Iteration          Convergence                     Energy [au]
 *******************************************************************************
                          1         1.59807                     -14.860601438858
                          2         2.10429                     -14.911792617606
                          3        0.907503E-01                 -15.655516752884
                          4        0.288621E-02                 -15.656865750737
                          5        0.119119E-02                 -15.656866873291
                          6        0.740468E-03                 -15.656867014560
                          7        0.292240E-04                 -15.656867103307
                          8        0.185245E-06                 -15.656867103452

 Energy components [Hartree]           Total Energy ::          -15.656867103452
                                        Band Energy ::           -3.000198979664
                                     Kinetic Energy ::           11.759972915296
                                   Potential Energy ::          -27.416840018748
                                      Virial (-V/T) ::            2.331369316598
                                        Core Energy ::          -26.140717222249
                                          XC Energy ::           -3.154051243207
                                     Coulomb Energy ::           13.637901362004
                       Total Pseudopotential Energy ::          -37.935784258805
                       Local Pseudopotential Energy ::          -39.218909979177
                    Nonlocal Pseudopotential Energy ::            1.283125720372
                                        Confinement ::            0.350941212594

 Orbital energies  State     L     Occupation   Energy[a.u.]          Energy[eV]

                       1     0          2.000      -0.864472          -23.523467

                       1     1          4.000      -0.317814           -8.648158

 Re-scaling the density matrix to get the right number of electrons for spin 2
                  # Electrons              Trace(P)               Scaling factor
                            8                 8.000                        1.000


 SCF WAVEFUNCTION OPTIMIZATION

  ----------------------------------- OT ---------------------------------------

  Allowing for rotations:  F
  Optimizing orbital energies:  F
  Minimizer      : DIIS                : direct inversion
                                         in the iterative subspace
                            using      : -   7 DIIS vectors
                                         - safer DIIS on
  Preconditioner : FULL_ALL            : diagonalization, state selective
  Precond_solver : DEFAULT
  stepsize       :    0.15000000
  energy_gap     :    0.20000000

  eps_taylor     :   0.10000E-15
  max_taylor     :             4

  mixed_precision    : F

  ----------------------------------- OT ---------------------------------------

  Step     Update method      Time    Convergence         Total energy    Change
  ------------------------------------------------------------------------------

  Trace(PS):                                   16.0000000000
  Electronic density on regular grids:        -15.3985693336        0.6014306664
  Core density on regular grids:               16.0000000000        0.0000000000
  Hard and soft densities (Lebedev):         -473.9119820680     -473.3105513748
  Total Rho_soft + Rho1_hard - Rho1_soft      -16.0000000268
  Total charge density (r-space):              -0.0000000268
  Total Rho_soft + Rho0_soft (g-space):        -0.0000001798

  Decoupling Energy:                                               0.0000052344
     1 OT DIIS     0.15E+00    8.1     0.14053736       -35.6724408711 -3.57E+01

  Trace(PS):                                   16.0000000000
  Electronic density on regular grids:        -15.2757183803        0.7242816197
  Core density on regular grids:               16.0000000000        0.0000000000
  Hard and soft densities (Lebedev):         -431.4615427984     -430.7372622359
  Total Rho_soft + Rho1_hard - Rho1_soft      -15.9999989427
  Total charge density (r-space):               0.0000010573
  Total Rho_soft + Rho0_soft (g-space):         0.0000009055

  Decoupling Energy:                                               0.0000180694
     2 OT DIIS     0.15E+00    9.9     0.09701427       -37.1029942057 -1.43E+00

  Trace(PS):                                   16.0000000000
  Electronic density on regular grids:        -15.2803350034        0.7196649966
  Core density on regular grids:               16.0000000000        0.0000000000
  Hard and soft densities (Lebedev):         -424.1647267093     -423.4450631274
  Total Rho_soft + Rho1_hard - Rho1_soft      -15.9999985854
  Total charge density (r-space):               0.0000014146
  Total Rho_soft + Rho0_soft (g-space):         0.0000012629

  Decoupling Energy:                                               0.0000088652
     3 OT DIIS     0.15E+00   10.4     0.05955560       -37.5317611349 -4.29E-01

  Trace(PS):                                   16.0000000000
  Electronic density on regular grids:        -15.3305531179        0.6694468821
  Core density on regular grids:               16.0000000000        0.0000000000
  Hard and soft densities (Lebedev):         -432.8054192319     -432.1359738909
  Total Rho_soft + Rho1_hard - Rho1_soft      -15.9999984589
  Total charge density (r-space):               0.0000015411
  Total Rho_soft + Rho0_soft (g-space):         0.0000013887

  Decoupling Energy:                                              -0.0000015843
     4 OT DIIS     0.15E+00    9.9     0.02094321       -37.7083564053 -1.77E-01

  Trace(PS):                                   16.0000000000
  Electronic density on regular grids:        -15.3556739097        0.6443260903
  Core density on regular grids:               16.0000000000        0.0000000000
  Hard and soft densities (Lebedev):         -426.4344703035     -425.7901457743
  Total Rho_soft + Rho1_hard - Rho1_soft      -15.9999984388
  Total charge density (r-space):               0.0000015612
  Total Rho_soft + Rho0_soft (g-space):         0.0000014085

  Decoupling Energy:                                              -0.0000015595
     5 OT DIIS     0.15E+00   10.2     0.01301847       -37.7387004261 -3.03E-02

  Trace(PS):                                   16.0000000000
  Electronic density on regular grids:        -15.3422451297        0.6577548703
  Core density on regular grids:               16.0000000000        0.0000000000
  Hard and soft densities (Lebedev):         -431.7265477095     -431.0687944279
  Total Rho_soft + Rho1_hard - Rho1_soft      -15.9999984113
  Total charge density (r-space):               0.0000015887
  Total Rho_soft + Rho0_soft (g-space):         0.0000014361

  Decoupling Energy:                                              -0.0000022973
     6 OT DIIS     0.15E+00   10.2     0.01136186       -37.7511764719 -1.25E-02

  Trace(PS):                                   16.0000000000
  Electronic density on regular grids:        -15.3626683432        0.6373316568
  Core density on regular grids:               16.0000000000        0.0000000000
  Hard and soft densities (Lebedev):         -425.6514475960     -425.0141175253
  Total Rho_soft + Rho1_hard - Rho1_soft      -15.9999984138
  Total charge density (r-space):               0.0000015862
  Total Rho_soft + Rho0_soft (g-space):         0.0000014334

  Decoupling Energy:                                              -0.0000018753
     7 OT DIIS     0.15E+00   10.6     0.00374549       -37.7576969875 -6.52E-03

  Trace(PS):                                   16.0000000000
  Electronic density on regular grids:        -15.3648734608        0.6351265392
  Core density on regular grids:               16.0000000000        0.0000000000
  Hard and soft densities (Lebedev):         -427.4426625325     -426.8075375880
  Total Rho_soft + Rho1_hard - Rho1_soft      -15.9999984053
  Total charge density (r-space):               0.0000015947
  Total Rho_soft + Rho0_soft (g-space):         0.0000014418

  Decoupling Energy:                                              -0.0000019619
     8 OT DIIS     0.15E+00    9.9     0.00152551       -37.7591267337 -1.43E-03

  Trace(PS):                                   16.0000000000
  Electronic density on regular grids:        -15.3659282034        0.6340717966
  Core density on regular grids:               16.0000000000        0.0000000000
  Hard and soft densities (Lebedev):         -427.2374102254     -426.6033400226
  Total Rho_soft + Rho1_hard - Rho1_soft      -15.9999984062
[...]
  Convergence in step size   =                  YES
  RMS step size              =         0.0001220088
  Conv. limit for RMS step   =         0.0015000000
  Convergence in RMS step    =                  YES
  Max. gradient              =         0.0000008271
  Conv. limit for gradients  =         0.0000500000
  Conv. in gradients         =                  YES
  RMS gradient               =         0.0000003762
  Conv. limit for RMS grad.  =         0.0003000000
  Conv. in RMS gradients     =                  YES
 ---------------------------------------------------

 *******************************************************************************
 ***                    GEOMETRY OPTIMIZATION COMPLETED                      ***
 *******************************************************************************

                    Reevaluating energy at the minimum

 DISTRIBUTION OF THE NEIGHBOR LISTS
              Total number of particle pairs:                                  6
              Total number of matrix elements:                              1014
              Average number of particle pairs:                                1
              Maximum number of particle pairs:                                2
              Average number of matrix element:                               32
              Maximum number of matrix elements:                             338


 DISTRIBUTION OF THE OVERLAP MATRIX
              Number  of non-zero blocks:                                      6
              Percentage non-zero blocks:                                 100.00
              Average number of blocks per CPU:                                1
              Maximum number of blocks per CPU:                                2
              Average number of matrix elements per CPU:                      32
              Maximum number of matrix elements per CPU:                     338

 Spin 1

 Number of electrons:                                                          8
 Number of occupied orbitals:                                                  8
 Number of molecular orbitals:                                                 8

 Spin 2

 Number of electrons:                                                          8
 Number of occupied orbitals:                                                  8
 Number of molecular orbitals:                                                 8

 Number of orbital functions:                                                 39
 Number of independent orbital functions:                                     39

 Extrapolation method: PS Nth order


 SCF WAVEFUNCTION OPTIMIZATION

  ----------------------------------- OT ---------------------------------------

  Allowing for rotations:  F
  Optimizing orbital energies:  F
  Minimizer      : DIIS                : direct inversion
                                         in the iterative subspace
                            using      : -   7 DIIS vectors
                                         - safer DIIS on
  Preconditioner : FULL_ALL            : diagonalization, state selective
  Precond_solver : DEFAULT
  stepsize       :    0.15000000
  energy_gap     :    0.20000000

  eps_taylor     :   0.10000E-15
  max_taylor     :             4

  mixed_precision    : F

  ----------------------------------- OT ---------------------------------------

  Step     Update method      Time    Convergence         Total energy    Change
  ------------------------------------------------------------------------------

  Trace(PS):                                   16.0000000000
  Electronic density on regular grids:        -15.3563665875        0.6436334125
  Core density on regular grids:               16.0000000000        0.0000000000
  Hard and soft densities (Lebedev):         -445.9117913855     -445.2681597308
  Total Rho_soft + Rho1_hard - Rho1_soft      -15.9999982422
  Total charge density (r-space):               0.0000017578
  Total Rho_soft + Rho0_soft (g-space):         0.0000016055

  Decoupling Energy:                                              -0.0000019108
     1 OT DIIS     0.15E+00    8.4     0.00048369       -37.7641529706 -3.78E+01

  Trace(PS):                                   16.0000000000
  Electronic density on regular grids:        -15.3563721032        0.6436278968
  Core density on regular grids:               16.0000000000        0.0000000000
  Hard and soft densities (Lebedev):         -445.9095736615     -445.2659475226
  Total Rho_soft + Rho1_hard - Rho1_soft      -15.9999982421
  Total charge density (r-space):               0.0000017579
  Total Rho_soft + Rho0_soft (g-space):         0.0000016055

  Decoupling Energy:                                              -0.0000019109
     2 OT DIIS     0.15E+00   10.1     0.00033763       -37.7641715599 -1.86E-05

  Trace(PS):                                   16.0000000000
  Electronic density on regular grids:        -15.3563821281        0.6436178719
  Core density on regular grids:               16.0000000000        0.0000000000
  Hard and soft densities (Lebedev):         -445.9078732804     -445.2642571663
  Total Rho_soft + Rho1_hard - Rho1_soft      -15.9999982421
  Total charge density (r-space):               0.0000017579
  Total Rho_soft + Rho0_soft (g-space):         0.0000016055

  Decoupling Energy:                                              -0.0000019108
     3 OT DIIS     0.15E+00    9.9     0.00001420       -37.7641892455 -1.77E-05

  Trace(PS):                                   16.0000000000
  Electronic density on regular grids:        -15.3563811414        0.6436188586
  Core density on regular grids:               16.0000000000        0.0000000000
  Hard and soft densities (Lebedev):         -445.9081031807     -445.2644860800
  Total Rho_soft + Rho1_hard - Rho1_soft      -15.9999982421
  Total charge density (r-space):               0.0000017579
  Total Rho_soft + Rho0_soft (g-space):         0.0000016055

  Decoupling Energy:                                              -0.0000019108
     4 OT DIIS     0.15E+00   10.2     0.00000736       -37.7641892575 -1.20E-08

  Trace(PS):                                   16.0000000000
  Electronic density on regular grids:        -15.3563802257        0.6436197743
  Core density on regular grids:               16.0000000000        0.0000000000
  Hard and soft densities (Lebedev):         -445.9083664059     -445.2647483895
  Total Rho_soft + Rho1_hard - Rho1_soft      -15.9999982421
  Total charge density (r-space):               0.0000017579
  Total Rho_soft + Rho0_soft (g-space):         0.0000016055

  Decoupling Energy:                                              -0.0000019108
     5 OT DIIS     0.15E+00    9.9     0.00000179       -37.7641892630 -5.56E-09

  Trace(PS):                                   16.0000000000
  Electronic density on regular grids:        -15.3563807132        0.6436192868
  Core density on regular grids:               16.0000000000        0.0000000000
  Hard and soft densities (Lebedev):         -445.9083086151     -445.2646910861
  Total Rho_soft + Rho1_hard - Rho1_soft      -15.9999982421
  Total charge density (r-space):               0.0000017579
  Total Rho_soft + Rho0_soft (g-space):         0.0000016055

  Decoupling Energy:                                              -0.0000019108
     6 OT DIIS     0.15E+00    9.9     0.00000015       -37.7641892635 -4.49E-10

  Trace(PS):                                   16.0000000000
  Electronic density on regular grids:        -15.3563804414        0.6436195586
  Core density on regular grids:               16.0000000000        0.0000000000
  Hard and soft densities (Lebedev):         -445.9083198257     -445.2647020250
  Total Rho_soft + Rho1_hard - Rho1_soft      -15.9999982421
  Total charge density (r-space):               0.0000017579
  Total Rho_soft + Rho0_soft (g-space):         0.0000016055

  Decoupling Energy:                                              -0.0000019108
     7 OT DIIS     0.15E+00   10.2     0.00000007       -37.7641892635 -4.97E-13

  *** SCF run converged in     7 steps ***


  Electronic density on regular grids:        -15.3563804414        0.6436195586
  Core density on regular grids:               16.0000000000        0.0000000000
  Hard and soft densities (Lebedev):         -445.9083198257     -445.2647020250
  Total Rho_soft + Rho1_hard - Rho1_soft      -15.9999982421
  Total charge density (r-space):               0.0000017579
  Total Rho_soft + Rho0_soft (g-space):         0.0000016055

  Overlap energy of the core charge distribution:               0.00000222940999
  Self energy of the core charge distribution:                -96.38742208476295
  Core Hamiltonian energy:                                     27.64364848196843
  Hartree energy:                                              32.24042184491526
  Exchange-correlation energy:                                 -8.00799444967115
  Dispersion energy:                                           -0.00008971626618

  GAPW| Exc from hard and soft atomic rho1:                    -0.64045132576707
  GAPW| local Eh = 1 center integrals:                          7.38769575667849

  Total energy:                                               -37.76418926349519

  Integrated absolute spin density  :                               0.0000000000
  Ideal and single determinant S**2 :                    0.000000      -0.000000


 MULLIKEN POPULATION ANALYSIS

 # Atom  Element  Kind  Atomic population (alpha,beta)   Net charge  Spin moment
      1     C        1           1.845248     1.845248     0.309504     0.000000
      2     O        2           3.077374     3.077374    -0.154748    -0.000000
      3     O        2           3.077378     3.077378    -0.154756    -0.000000
 # Total charge and spin         8.000000     8.000000    -0.000000    -0.000000


 ENERGY| Total FORCE_EVAL ( QS ) energy (a.u.):              -37.764189263495190


 -------------------------------------------------------------------------------
 ----                             MULTIGRID INFO                            ----
 -------------------------------------------------------------------------------
 count for grid        1:         269742          cutoff [a.u.]          150.00
 count for grid        2:         164504          cutoff [a.u.]           50.00
 count for grid        3:         126952          cutoff [a.u.]           16.67
 count for grid        4:          88571          cutoff [a.u.]            5.56
 total gridlevel count  :         649769

 -------------------------------------------------------------------------------
 -                                                                             -
 -                         MESSAGE PASSING PERFORMANCE                         -
 -                                                                             -
 -------------------------------------------------------------------------------

 ROUTINE             CALLS  TOT TIME [s]  AVE VOLUME [Bytes]  PERFORMANCE [MB/s]
 MP_Group                5         0.000
 MP_Bcast             3596         0.894             255171.             1026.39
 MP_Allreduce        10568        46.568              11478.                2.60
 MP_Gather             108         0.008                768.               10.37
 MP_Sync               234         0.001
 MP_Alltoall          9969       594.763           27813050.              466.18
 MP_SendRecv          3224         0.028                 21.                2.42
 MP_ISendRecv        62124         0.748             139392.            11576.99
 MP_Wait            127228       163.812
 MP_comm_split         230         0.034
 MP_ISend            55088        20.820             785740.             2079.00
 MP_IRecv            55088         1.388             785748.            31185.35
 MP_Recv               492         0.001                278.              136.70
 -------------------------------------------------------------------------------


 -------------------------------------------------------------------------------
 -                                                                             -
 -                           R E F E R E N C E S                               -
 -                                                                             -
 -------------------------------------------------------------------------------
 
 CP2K version 2.4 (Development Version), the CP2K developers group (2013).
 CP2K is freely available from http://www.cp2k.org/ .

 Grimme, S; Antony, J; Ehrlich, S; Krieg, H. 
 JOURNAL OF CHEMICAL PHYSICS, 132 (15), 154104 (2010). 
 A consistent and accurate ab initio parametrization of density
 functional dispersion correction (DFT-D) for the 94 elements H-Pu.
 http://dx.doi.org/10.1063/1.3382344


 VandeVondele, J; Hutter, J. 
 JOURNAL OF CHEMICAL PHYSICS, 127 (11), 114105 (2007). 
 Gaussian basis sets for accurate calculations on molecular systems in
 gas and condensed phases.
 http://dx.doi.org/10.1063/1.2770708


 Krack, M. 
 THEORETICAL CHEMISTRY ACCOUNTS, 114 (1-3), 145-152 (2005). 
 Pseudopotentials for H to Kr optimized for gradient-corrected
 exchange-correlation functionals.
 http://dx.doi.org/10.1007/s00214-005-0655-y


 VandeVondele, J; Krack, M; Mohamed, F; Parrinello, M; Chassaing, T;
 Hutter, J. COMPUTER PHYSICS COMMUNICATIONS, 167 (2), 103-128 (2005). 
 QUICKSTEP: Fast and accurate density functional calculations using a
 mixed Gaussian and plane waves approach.
 http://dx.doi.org/10.1016/j.cpc.2004.12.014


 Frigo, M; Johnson, SG. 
 PROCEEDINGS OF THE IEEE, 93 (2), 216-231 (2005). 
 The design and implementation of FFTW3.
 http://dx.doi.org/10.1109/JPROC.2004.840301


 VandeVondele, J; Hutter, J. 
 JOURNAL OF CHEMICAL PHYSICS, 118 (10), 4365-4369 (2003). 
 An efficient orbital transformation method for electronic structure
 calculations.
 http://dx.doi.org/10.1063/1.1543154


 Lippert, G; Hutter, J; Parrinello, M. 
 THEORETICAL CHEMISTRY ACCOUNTS, 103 (2), 124-140 (1999). 
 The Gaussian and augmented-plane-wave density functional method for ab
 initio molecular dynamics simulations.
 http://dx.doi.org/10.1007/s002140050523


 Krack, M; Parrinello, M. 
 PHYSICAL CHEMISTRY CHEMICAL PHYSICS, 2 (10), 2105-2112 (2000). 
 All-electron ab-initio molecular dynamics.
 http://dx.doi.org/10.1039/b001167n


 Hartwigsen, C; Goedecker, S; Hutter, J. 
 PHYSICAL REVIEW B, 58 (7), 3641-3662 (1998). 
 Relativistic separable dual-space Gaussian pseudopotentials from H to Rn.
 http://dx.doi.org/10.1103/PhysRevB.58.3641


 Perdew, JP; Burke, K; Ernzerhof, M. 
 PHYSICAL REVIEW LETTERS, 77 (18), 3865-3868 (1996). 
 Generalized gradient approximation made simple.
 http://dx.doi.org/10.1103/PhysRevLett.77.3865


 Goedecker, S; Teter, M; Hutter, J. 
 PHYSICAL REVIEW B, 54 (3), 1703-1710 (1996). 
 Separable dual-space Gaussian pseudopotentials.
 http://dx.doi.org/10.1103/PhysRevB.54.1703


 BLOCHL, PE. 
 JOURNAL OF CHEMICAL PHYSICS, 103 (17), 7422-7428 (1995). 
 ELECTROSTATIC DECOUPLING OF PERIODIC IMAGES OF PLANE-WAVE-EXPANDED
 DENSITIES AND DERIVED ATOMIC POINT CHARGES.
 http://dx.doi.org/10.1063/1.470314


 -------------------------------------------------------------------------------
 -                                                                             -
 -                                T I M I N G                                  -
 -                                                                             -
 -------------------------------------------------------------------------------
 SUBROUTINE                       CALLS  ASD         SELF TIME        TOTAL TIME
                                              AVERAGE  MAXIMUM  AVERAGE  MAXIMUM
 CP2K                                 1  1.0    0.056    0.070 2516.873 2516.905
 geoopt_bfgs                          1  3.0    0.011    0.054 2515.596 2515.615
 cp_geo_opt                           1  2.0    0.001    0.002 2515.596 2515.615
 cp_eval_at                          27  4.0    0.009    0.014 2515.010 2515.025
 qs_forces                           26  5.0    0.032    0.038 2442.123 2442.142
 qs_energies_scf                     27  6.0    0.005    0.010 2315.315 2315.335
 scf_env_do_scf                      27  7.0    0.005    0.008 2253.423 2253.441
 scf_env_do_scf_inner_loop          224  8.0    0.076    0.114 2042.251 2042.300
 qs_ks_build_kohn_sham_matrix       250  9.7    6.220   16.230 1911.498 1911.518
 fft_wrap_pw1pw2                   8510 12.9    0.415    0.499 1689.838 1731.329
 qs_ks_update_qs_env                251  9.0    0.009    0.014 1712.347 1712.361
 fft_wrap_pw1pw2_150               5504 13.9  108.598  113.170 1604.101 1663.345
 fft3d_ps                          8510 14.9  625.037  654.437 1385.733 1425.570
 qs_vxc_create                      250 10.7    0.014    0.029 1212.468 1212.477
 xc_vxc_pw_create                   250 11.7   28.935   33.716 1212.454 1212.466
 xc_rho_set_and_dset_create         250 12.7   11.564   11.817  528.970  584.037
 qs_rho_update_rho                  251  9.1    0.008    0.015  519.133  519.144
 calculate_rho_elec                 502 10.1   14.567   34.092  517.681  517.697
 density_rs2pw                      502 11.1    0.059    0.073  492.000  501.663
 yz_to_x                           4258 15.5  390.283  422.232  390.283  422.232
 rs_pw_transfer                    4508 12.8    0.212    0.273  397.364  399.587
 x_to_yz                           4252 16.2  370.361  395.442  370.361  395.442
 sum_up_and_integrate               250 10.7    8.824    9.083  363.792  364.686
 integrate_v_rspace                 500 11.7    0.591    2.613  354.967  355.791
 potential_pw2rs                    500 12.7    0.520    0.592  353.712  354.347
 init_scf_loop                       27  8.0    0.003    0.007  211.086  211.091
 qs_ks_update_qs_env_forces          26  6.0    0.001    0.003  199.258  199.265
 prepare_gapw_den                   250 10.7   13.462   14.827  137.462  141.978
 rs_pw_transfer_PW2RS_150           750 14.0  129.681  133.233  137.609  141.211
 rs_pw_transfer_RS2PW_150           752 13.3  124.095  127.688  124.095  127.688
 put_rho0_on_grid                   250 11.7    3.086    4.288  120.687  125.202
 fft_wrap_pw1pw2_50                1002 13.9    4.657    5.210   74.883  115.962
 pw_scatter_p                      4252 15.2   97.710  100.110   97.710  100.110
 pw_gather_p                       4258 14.5   91.872   97.058   91.872   97.058
 qs_ks_ddapc                        250 10.7    0.005    0.009   88.242   93.271
 xc_functional_eval                 250 13.7    0.023    0.049   36.589   90.828
 pbe_lsd_eval                       250 14.7   36.566   90.793   36.566   90.793
 cp_dbcsr_multiply_d              10289 12.9    0.487    0.531   75.726   76.034
 qs_scf_loop_do_ot                  224  9.0    0.009    0.018   72.071   72.082
 pw_derive                         3000 13.2   67.086   68.875   67.086   68.875
 ot_scf_mini                        224 10.0    0.062    0.072   68.598   68.614
 dbcsr_multiply_anytype           10289 14.9    5.103    5.454   67.805   68.316
 init_scf_run                        27  7.0    0.006    0.026   58.775   58.785
 scf_env_initial_rho_setup           27  8.0    0.003    0.012   58.747   58.751
 wfi_extrapolate                     27  9.0    0.039    0.044   56.459   56.463
 integrate_vhg0_rspace              250 10.7    3.600    5.148   55.142   55.511
 -------------------------------------------------------------------------------

  **** **** ******  **  PROGRAM ENDED AT                 2013-11-12 18:31:02.271
 ***** ** ***  *** **   PROGRAM RAN ON                                        n6
 **    ****   ******    PROGRAM RAN BY                                       spf
 ***** **    ** ** **   PROGRAM PROCESS ID                                 18642
  **** **  *******  **  PROGRAM STOPPED IN                    /mnt/CalcC/spf/CO2
