       2
 i =        2, E =       -13.1199043372
  P        12.9498974782       14.0500966907       14.0500965771
  P        14.0501025218       12.9499033093       12.9499034228
       2
 i =        3, E =       -13.1199044031
  P        12.9499853602       14.0500088039       14.0500086899
  P        14.0500146398       12.9499911961       12.9499913100
       2
 i =        4, E =       -13.1199044031
  P        12.9499853602       14.0500088039       14.0500086899
  P        14.0500146398       12.9499911961       12.9499913100
