 DBCSR| Multiplication driver                                                SMM
 DBCSR| Multiplication stack size                                           1000
 DBCSR| Multiplication size stacks                                             0
 DBCSR| Use subcommunicators                                                   T
 DBCSR| Use MPI combined types                                                 F
 DBCSR| Use MPI memory allocation                                              T
 DBCSR| Use Communication thread                                               T
 DBCSR| Communication thread load                                            100


  **** **** ******  **  PROGRAM STARTED AT               2013-09-18 10:28:38.935
 ***** ** ***  *** **   PROGRAM STARTED ON                                    n6
 **    ****   ******    PROGRAM STARTED BY                                   spf
 ***** **    ** ** **   PROGRAM PROCESS ID                                 14118
  **** **  *******  **  PROGRAM STARTED IN                     /mnt/CalcC/spf/P2

 CP2K| version string:                    CP2K version 2.4 (Development Version)
 CP2K| source code revision number:                                        12836
 CP2K| is freely available from                             http://www.cp2k.org/
 CP2K| Program compiled at                         Mo 15. Apr 13:01:07 CEST 2013
 CP2K| Program compiled on                                                  head
 CP2K| Program compiled for                                     Linux-x86-64-gcc
 CP2K| Input file name                                                    P2.inp

 GLOBAL| Force Environment number                                              1
 GLOBAL| Basis set file name                                           BASIS_SET
 GLOBAL| Geminal file name                                         BASIS_GEMINAL
 GLOBAL| Potential file name                                           POTENTIAL
 GLOBAL| MM Potential file name                                     MM_POTENTIAL
 GLOBAL| Coordinate file name                                      __STD_INPUT__
 GLOBAL| Method name                                                        CP2K
 GLOBAL| Project name                                                         P2
 GLOBAL| Preferred FFT library                                             FFTW3
 GLOBAL| Run type                                                        GEO_OPT
 GLOBAL| All-to-all communication in single precision                          F
 GLOBAL| FFTs using library dependent lengths                                  F
 GLOBAL| Global print level                                               MEDIUM
 GLOBAL| Total number of message passing processes                             8
 GLOBAL| Number of threads for this process                                    1
 GLOBAL| This output is from process                                           0

 MEMORY| system memory details [Kb]
 MEMORY|                        rank 0           min           max       average
 MEMORY| MemTotal             33018288      33018288      33018288      33018288
 MEMORY| MemFree              23142428      23142428      23142428      23142428
 MEMORY| Buffers                132784        132784        132784        132784
 MEMORY| Cached                8956088       8956088       8956088       8956088
 MEMORY| Slab                   154832        154832        154832        154832
 MEMORY| SReclaimable            92892         92892         92892         92892
 MEMORY| MemLikelyFree        32324192      32324192      32324192      32324192


 *** Fundamental physical constants (SI units) ***

 *** Literature: B. J. Mohr and B. N. Taylor,
 ***             CODATA recommended values of the fundamental physical
 ***             constants: 2006, Web Version 5.1
 ***             http://physics.nist.gov/constants

 Speed of light in vacuum [m/s]                             2.99792458000000E+08
 Magnetic constant or permeability of vacuum [N/A**2]       1.25663706143592E-06
 Electric constant or permittivity of vacuum [F/m]          8.85418781762039E-12
 Planck constant (h) [J*s]                                  6.62606896000000E-34
 Planck constant (h-bar) [J*s]                              1.05457162825177E-34
 Elementary charge [C]                                      1.60217648700000E-19
 Electron mass [kg]                                         9.10938215000000E-31
 Electron g factor [ ]                                     -2.00231930436220E+00
 Proton mass [kg]                                           1.67262163700000E-27
 Fine-structure constant                                    7.29735253760000E-03
 Rydberg constant [1/m]                                     1.09737315685270E+07
 Avogadro constant [1/mol]                                  6.02214179000000E+23
 Boltzmann constant [J/K]                                   1.38065040000000E-23
 Atomic mass unit [kg]                                      1.66053878200000E-27
 Bohr radius [m]                                            5.29177208590000E-11

 *** Conversion factors ***

 [u] -> [a.u.]                                              1.82288848426455E+03
 [Angstrom] -> [Bohr] = [a.u.]                              1.88972613288564E+00
 [a.u.] = [Bohr] -> [Angstrom]                              5.29177208590000E-01
 [a.u.] -> [s]                                              2.41888432650478E-17
 [a.u.] -> [fs]                                             2.41888432650478E-02
 [a.u.] -> [J]                                              4.35974393937059E-18
 [a.u.] -> [K]                                              3.15774647902944E+05
 [a.u.] -> [kJ/mol]                                         2.62549961709828E+03
 [a.u.] -> [kcal/mol]                                       6.27509468713739E+02
 [a.u.] -> [Pa]                                             2.94210107994716E+13
 [a.u.] -> [bar]                                            2.94210107994716E+08
 [a.u.] -> [atm]                                            2.90362800883016E+08
 [a.u.] -> [eV]                                             2.72113838565563E+01
 [a.u.] -> [Hz]                                             6.57968392072181E+15
 [a.u.] -> [1/cm] (wave numbers)                            2.19474631370540E+05
 [a.u./Bohr**2] -> [1/cm]                                   5.14048714338585E+03
 

 PW_GRID: Information for grid number                                          1
 PW_GRID: Cutoff [a.u.]                                                      4.4
 PW_GRID: spherical cutoff:                                                   NO
 PW_GRID:   Bounds   1              0      49                Points:          50
 PW_GRID:   Bounds   2              0      49                Points:          50
 PW_GRID:   Bounds   3              0      49                Points:          50
 PW_GRID: Volume element (a.u.^3)   1.063         Volume (a.u.^3)    132827.4696
 PW_GRID: Grid span                                                    HALFSPACE

 CELL| Volume [angstrom^3]:                                            19683.000
 CELL| Vector a [angstrom]:      27.000     0.000     0.000    |a| =      27.000
 CELL| Vector b [angstrom]:       0.000    27.000     0.000    |b| =      27.000
 CELL| Vector c [angstrom]:       0.000     0.000    27.000    |c| =      27.000
 CELL| Angle (b,c), alpha [degree]:                                       90.000
 CELL| Angle (a,c), beta  [degree]:                                       90.000
 CELL| Angle (a,b), gamma [degree]:                                       90.000
 CELL| Orthorhombic:                                                         YES

 CELL_REF| Volume [angstrom^3]:                                        19683.000
 CELL_REF| Vector a [angstrom    27.000     0.000     0.000    |a| =      27.000
 CELL_REF| Vector b [angstrom     0.000    27.000     0.000    |b| =      27.000
 CELL_REF| Vector c [angstrom     0.000     0.000    27.000    |c| =      27.000
 CELL_REF| Angle (b,c), alpha [degree]:                                   90.000
 CELL_REF| Angle (a,c), beta  [degree]:                                   90.000
 CELL_REF| Angle (a,b), gamma [degree]:                                   90.000
 CELL_REF| Orthorhombic:                                                     YES

 CELL_TOP| Volume [angstrom^3]:                                        19683.000
 CELL_TOP| Vector a [angstrom    27.000     0.000     0.000    |a| =      27.000
 CELL_TOP| Vector b [angstrom     0.000    27.000     0.000    |b| =      27.000
 CELL_TOP| Vector c [angstrom     0.000     0.000    27.000    |c| =      27.000
 CELL_TOP| Angle (b,c), alpha [degree]:                                   90.000
 CELL_TOP| Angle (a,c), beta  [degree]:                                   90.000
 CELL_TOP| Angle (a,b), gamma [degree]:                                   90.000
 CELL_TOP| Orthorhombic:                                                     YES

 GENERATE|  Preliminary Number of Bonds generated:                             0
 GENERATE|  Achieved consistency in connectivity generation.

 *******************************************************************************
 *******************************************************************************
 **                                                                           **
 **     #####                         ##              ##                      **
 **    ##   ##            ##          ##              ##                      **
 **   ##     ##                       ##            ######                    **
 **   ##     ##  ##   ##  ##   #####  ##  ##   ####   ##    #####    #####    **
 **   ##     ##  ##   ##  ##  ##      ## ##   ##      ##   ##   ##  ##   ##   **
 **   ##  ## ##  ##   ##  ##  ##      ####     ###    ##   ######   ######    **
 **    ##  ###   ##   ##  ##  ##      ## ##      ##   ##   ##       ##        **
 **     #######   #####   ##   #####  ##  ##  ####    ##    #####   ##        **
 **           ##                                                    ##        **
 **                                                                           **
 **                                                ... make the atoms dance   **
 **                                                                           **
 **            Copyright (C) by CP2K Developers Group (2000 - 2013)           **
 **                                                                           **
 *******************************************************************************

 DFT| Spin unrestricted (spin-polarized) Kohn-Sham calculation               UKS
 DFT| Multiplicity                                                             1
 DFT| Number of spin states                                                    2
 DFT| Charge                                                                   0
 DFT| Self-interaction correction (SIC)                                       NO
 DFT| Cutoffs: density                                              1.000000E-10
 DFT|          gradient                                             1.000000E-10
 DFT|          tau                                                  1.000000E-10
 DFT|          cutoff_smoothing_range                               0.000000E+00
 DFT| XC density smoothing                                                  NONE
 DFT| XC derivatives                                                          PW
 FUNCTIONAL| ROUTINE=NEW
 FUNCTIONAL| PBE:
 FUNCTIONAL| J.P.Perdew, K.Burke, M.Ernzerhof, Phys. Rev. Letter, vol. 77, n 18,
 FUNCTIONAL|  pp. 3865-3868, (1996){spin polarized}
 vdW POTENTIAL|                                                   Pair Potential
 vdW POTENTIAL|          Potential Form: S. Grimme et al, JCP 132: 154104 (2010)
 vdW POTENTIAL|          Cutoff Radius [Bohr]:                             22.68
 vdW POTENTIAL|          s6 Scaling Factor:                               1.0000
 vdW POTENTIAL|          sr6 Scaling Factor:                              1.2170
 vdW POTENTIAL|          s8 Scaling Factor:                               0.7220
 vdW POTENTIAL|          Cutoff for CN calculation:                   0.1000E-05

 QS| Method:                                                                GAPW
 QS| Density plane wave grid type                        NON-SPHERICAL FULLSPACE
 QS| Number of grid levels:                                                    4
 QS| Density cutoff [a.u.]:                                                150.0
 QS| Multi grid cutoff [a.u.]: 1) grid level                               150.0
 QS|                           2) grid level                                50.0
 QS|                           3) grid level                                16.7
 QS|                           4) grid level                                 5.6
 QS| Grid level progression factor:                                          3.0
 QS| Relative density cutoff [a.u.]:                                        15.0
 QS| Consistent realspace mapping and integration 
 QS| Interaction thresholds: eps_pgf_orb:                                1.0E-05
 QS|                         eps_filter_matrix:                          0.0E+00
 QS|                         eps_core_charge:                            1.0E-12
 QS|                         eps_rho_gspace:                             1.0E-10
 QS|                         eps_rho_rspace:                             1.0E-10
 QS|                         eps_gvg_rspace:                             1.0E-05
 QS|                         eps_ppl:                                    1.0E-02
 QS|                         eps_ppnl:                                   1.0E-07
 QS| GAPW|                   eps_fit:                                    1.0E-04
 QS| GAPW|                   eps_iso:                                    1.0E-12
 QS| GAPW|                   eps_svd:                                    1.0E-08
 QS| GAPW|                   eps_cpc:                                    1.0E-10
 QS| GAPW|   atom-r-grid: quadrature:                 GC_LOG                        
 QS| GAPW|      atom-s-grid:  max l :                                          4
 QS| GAPW|      max_l_rho0 :                                                   2
 QS| GAPW|      At least one kind is NOT PAW, i.e. it has only soft AO 
 QS| GAPW|      The NOT PAW atoms are treated fully GPW


 ATOMIC KIND INFORMATION

  1. Atomic kind: P                                     Number of atoms:       2

     Orbital Basis Set                                           DZVP-MOLOPT-GTH

       Number of orbital shell sets:                                           1
       Number of orbital shells:                                               5
       Number of primitive Cartesian functions:                                6
       Number of Cartesian basis functions:                                   14
       Number of spherical basis functions:                                   13
       Norm type:                                                              2

       Normalised Cartesian orbitals:

                        Set   Shell   Orbital            Exponent    Coefficient

                          1       1    2s                3.338153       0.070371
                                                         1.833920      -0.349206
                                                         0.688532      -0.062221
                                                         0.372377       0.229985
                                                         0.166131       0.092364
                                                         0.075778       0.009125

                          1       2    3s                3.338153      -0.201073
                                                         1.833920       0.702194
                                                         0.688532       0.130768
                                                         0.372377      -0.497372
                                                         0.166131       0.102904
                                                         0.075778       0.110045

                          1       3    3px               3.338153      -0.086704
                                                         1.833920      -0.124680
                                                         0.688532       0.120237
                                                         0.372377       0.175425
                                                         0.166131       0.058965
                                                         0.075778       0.011013
                          1       3    3py               3.338153      -0.086704
                                                         1.833920      -0.124680
                                                         0.688532       0.120237
                                                         0.372377       0.175425
                                                         0.166131       0.058965
                                                         0.075778       0.011013
                          1       3    3pz               3.338153      -0.086704
                                                         1.833920      -0.124680
                                                         0.688532       0.120237
                                                         0.372377       0.175425
                                                         0.166131       0.058965
                                                         0.075778       0.011013

                          1       4    4px               3.338153       0.044134
                                                         1.833920       0.416759
                                                         0.688532      -0.362830
                                                         0.372377      -0.135315
                                                         0.166131       0.030855
                                                         0.075778       0.054348
                          1       4    4py               3.338153       0.044134
                                                         1.833920       0.416759
                                                         0.688532      -0.362830
                                                         0.372377      -0.135315
                                                         0.166131       0.030855
                                                         0.075778       0.054348
                          1       4    4pz               3.338153       0.044134
                                                         1.833920       0.416759
                                                         0.688532      -0.362830
                                                         0.372377      -0.135315
                                                         0.166131       0.030855
                                                         0.075778       0.054348

                          1       5    4dx2              3.338153       0.250913
                                                         1.833920       0.524236
                                                         0.688532       0.341345
                                                         0.372377       0.113132
                                                         0.166131       0.017371
                                                         0.075778       0.000431
                          1       5    4dxy              3.338153       0.434593
                                                         1.833920       0.908003
                                                         0.688532       0.591227
                                                         0.372377       0.195951
                                                         0.166131       0.030087
                                                         0.075778       0.000746
                          1       5    4dxz              3.338153       0.434593
                                                         1.833920       0.908003
                                                         0.688532       0.591227
                                                         0.372377       0.195951
                                                         0.166131       0.030087
                                                         0.075778       0.000746
                          1       5    4dy2              3.338153       0.250913
                                                         1.833920       0.524236
                                                         0.688532       0.341345
                                                         0.372377       0.113132
                                                         0.166131       0.017371
                                                         0.075778       0.000431
                          1       5    4dyz              3.338153       0.434593
                                                         1.833920       0.908003
                                                         0.688532       0.591227
                                                         0.372377       0.195951
                                                         0.166131       0.030087
                                                         0.075778       0.000746
                          1       5    4dz2              3.338153       0.250913
                                                         1.833920       0.524236
                                                         0.688532       0.341345
                                                         0.372377       0.113132
                                                         0.166131       0.017371
                                                         0.075778       0.000431

     Potential information for                                        GTH-PBE-q5

       Description:                       Goedecker-Teter-Hutter pseudopotential
                                           Goedecker et al., PRB 54, 1703 (1996)
                                          Hartwigsen et al., PRB 58, 3641 (1998)
                                                      Krack, TCA 114, 145 (2005)

       Gaussian exponent of the core charge distribution:               2.704164
       Electronic configuration (s p d ...):                               2   3

       Parameters of the local part of the GTH pseudopotential:

                          rloc        C1          C2          C3          C4
                        0.430000   -5.875943

       Parameters of the non-local part of the GTH pseudopotential:

                   l      r(l)      h(i,j,l)

                   0    0.396377   11.008862   -3.470356
                                   -3.470356    4.480210
                   1    0.448298    3.056064


 MOLECULE KIND INFORMATION


 All atoms are their own molecule, skipping detailed information


 TOTAL NUMBERS AND MAXIMUM NUMBERS

  Total number of            - Atomic kinds:                                   1
                             - Atoms:                                          2
                             - Shell sets:                                     2
                             - Shells:                                        10
                             - Primitive Cartesian functions:                 12
                             - Cartesian basis functions:                     28
                             - Spherical basis functions:                     26

  Maximum angular momentum of- Orbital basis functions:                        2
                             - Local part of the GTH pseudopotential:          0
                             - Non-local part of the GTH pseudopotential:      2


 MODULE QUICKSTEP:  ATOMIC COORDINATES IN angstrom

  Atom  Kind  Element       X           Y           Z          Z(eff)       Mass

       1     1 P   15   12.957385   14.042610   14.042610      5.00      30.9738
       2     1 P   15   14.042615   12.957390   12.957390      5.00      30.9738




 SCF PARAMETERS         Density guess:                                    ATOMIC
                        --------------------------------------------------------
                        max_scf:                                             200
                        max_scf_history:                                       0
                        max_diis:                                              4
                        --------------------------------------------------------
                        eps_scf:                                        1.00E-07
                        eps_scf_history:                                0.00E+00
                        eps_diis:                                       1.00E-01
                        eps_eigval:                                     1.00E-05
                        --------------------------------------------------------
                        level_shift [a.u.]:                                 0.00
                        --------------------------------------------------------
                        No outer SCF

 PW_GRID: Information for grid number                                          2
 PW_GRID: Grid distributed over                                     8 processors
 PW_GRID: Real space group dimensions                                     8    1
 PW_GRID: the grid is blocked:                                                NO
 PW_GRID: Cutoff [a.u.]                                                    150.0
 PW_GRID: spherical cutoff:                                                   NO
 PW_GRID:   Bounds   1           -144     143                Points:         288
 PW_GRID:   Bounds   2           -144     143                Points:         288
 PW_GRID:   Bounds   3           -144     143                Points:         288
 PW_GRID: Volume element (a.u.^3)  0.5560E-02     Volume (a.u.^3)    132827.4696
 PW_GRID: Grid span                                                    FULLSPACE
 PW_GRID:   Distribution                         Average         Max         Min
 PW_GRID:   G-Vectors                          2985984.0     2985984     2985984
 PW_GRID:   G-Rays                               10368.0       10368       10368
 PW_GRID:   Real Space Points                  2985984.0     2985984     2985984

 PW_GRID: Information for grid number                                          3
 PW_GRID: Grid distributed over                                     8 processors
 PW_GRID: Real space group dimensions                                     8    1
 PW_GRID: the grid is blocked:                                                NO
 PW_GRID: Cutoff [a.u.]                                                     50.0
 PW_GRID: spherical cutoff:                                                   NO
 PW_GRID:   Bounds   1            -90      89                Points:         180
 PW_GRID:   Bounds   2            -90      89                Points:         180
 PW_GRID:   Bounds   3            -90      89                Points:         180
 PW_GRID: Volume element (a.u.^3)  0.2278E-01     Volume (a.u.^3)    132827.4696
 PW_GRID: Grid span                                                    FULLSPACE
 PW_GRID:   Distribution                         Average         Max         Min
 PW_GRID:   G-Vectors                           729000.0      729360      728820
 PW_GRID:   G-Rays                                4050.0        4052        4049
 PW_GRID:   Real Space Points                   729000.0      745200      712800

 PW_GRID: Information for grid number                                          4
 PW_GRID: Grid distributed over                                     8 processors
 PW_GRID: Real space group dimensions                                     8    1
 PW_GRID: the grid is blocked:                                                NO
 PW_GRID: Cutoff [a.u.]                                                     16.7
 PW_GRID: spherical cutoff:                                                   NO
 PW_GRID:   Bounds   1            -48      47                Points:          96
 PW_GRID:   Bounds   2            -48      47                Points:          96
 PW_GRID:   Bounds   3            -48      47                Points:          96
 PW_GRID: Volume element (a.u.^3)  0.1501         Volume (a.u.^3)    132827.4696
 PW_GRID: Grid span                                                    FULLSPACE
 PW_GRID:   Distribution                         Average         Max         Min
 PW_GRID:   G-Vectors                           110592.0      110688      110496
 PW_GRID:   G-Rays                                1152.0        1153        1151
 PW_GRID:   Real Space Points                   110592.0      110592      110592

 PW_GRID: Information for grid number                                          5
 PW_GRID: Grid distributed over                                     8 processors
 PW_GRID: Real space group dimensions                                     8    1
 PW_GRID: the grid is blocked:                                                NO
 PW_GRID: Cutoff [a.u.]                                                      5.6
 PW_GRID: spherical cutoff:                                                   NO
 PW_GRID:   Bounds   1            -30      29                Points:          60
 PW_GRID:   Bounds   2            -30      29                Points:          60
 PW_GRID:   Bounds   3            -30      29                Points:          60
 PW_GRID: Volume element (a.u.^3)  0.6149         Volume (a.u.^3)    132827.4696
 PW_GRID: Grid span                                                    FULLSPACE
 PW_GRID:   Distribution                         Average         Max         Min
 PW_GRID:   G-Vectors                            27000.0       27120       26940
 PW_GRID:   G-Rays                                 450.0         452         449
 PW_GRID:   Real Space Points                    27000.0       28800       25200

 RS_GRID: Information for grid number                                          2
 RS_GRID:   Bounds   1           -144     143                Points:         288
 RS_GRID:   Bounds   2           -144     143                Points:         288
 RS_GRID:   Bounds   3           -144     143                Points:         288
 RS_GRID: Real space distribution over                                  2 groups
 RS_GRID: Real space distribution along direction                              2
 RS_GRID: Border size                                                         19
 RS_GRID: Real space distribution over                                  4 groups
 RS_GRID: Real space distribution along direction                              3
 RS_GRID: Border size                                                         19
 RS_GRID:   Distribution                         Average         Max         Min
 RS_GRID:   Planes                                 182.0         182         182
 RS_GRID:   Distribution                         Average         Max         Min
 RS_GRID:   Planes                                 110.0         110         110

 RS_GRID: Information for grid number                                          3
 RS_GRID:   Bounds   1            -90      89                Points:         180
 RS_GRID:   Bounds   2            -90      89                Points:         180
 RS_GRID:   Bounds   3            -90      89                Points:         180
 RS_GRID: Real space distribution over                                  2 groups
 RS_GRID: Real space distribution along direction                              2
 RS_GRID: Border size                                                         18
 RS_GRID: Real space distribution over                                  4 groups
 RS_GRID: Real space distribution along direction                              3
 RS_GRID: Border size                                                         18
 RS_GRID:   Distribution                         Average         Max         Min
 RS_GRID:   Planes                                 126.0         126         126
 RS_GRID:   Distribution                         Average         Max         Min
 RS_GRID:   Planes                                  81.0          81          81

 RS_GRID: Information for grid number                                          4
 RS_GRID:   Bounds   1            -48      47                Points:          96
 RS_GRID:   Bounds   2            -48      47                Points:          96
 RS_GRID:   Bounds   3            -48      47                Points:          96
 RS_GRID: Real space fully replicated
 RS_GRID: Group size                                                           1

 RS_GRID: Information for grid number                                          5
 RS_GRID:   Bounds   1            -30      29                Points:          60
 RS_GRID:   Bounds   2            -30      29                Points:          60
 RS_GRID:   Bounds   3            -30      29                Points:          60
 RS_GRID: Real space fully replicated
 RS_GRID: Group size                                                           1

 DISTRIBUTION OF THE PARTICLES (ROWS)
              Process row      Number of particles         Number of matrix rows
                        0                        2                            -1
                        1                        0                            -1
                      Sum                        2                            -1

 DISTRIBUTION OF THE PARTICLES (COLUMNS)
              Process col      Number of particles      Number of matrix columns
                        0                        1                            -1
                        1                        1                            -1
                        2                        0                            -1
                        3                        0                            -1
                      Sum                        2                            -1

 *******************************************************************************
 ***                     STARTING GEOMETRY OPTIMIZATION                      ***
 ***                                   BFGS                                  ***
 *******************************************************************************

 DISTRIBUTION OF THE NEIGHBOR LISTS
              Total number of particle pairs:                                  3
              Total number of matrix elements:                               507
              Average number of particle pairs:                                1
              Maximum number of particle pairs:                                2
              Average number of matrix element:                               64
              Maximum number of matrix elements:                             338


 DISTRIBUTION OF THE OVERLAP MATRIX
              Number  of non-zero blocks:                                      3
              Percentage non-zero blocks:                                 100.00
              Average number of blocks per CPU:                                1
              Maximum number of blocks per CPU:                                2
              Average number of matrix elements per CPU:                      64
              Maximum number of matrix elements per CPU:                     338

 Spin 1

 Number of electrons:                                                          5
 Number of occupied orbitals:                                                  5
 Number of molecular orbitals:                                                 5

 Spin 2

 Number of electrons:                                                          5
 Number of occupied orbitals:                                                  5
 Number of molecular orbitals:                                                 5

 Number of orbital functions:                                                 26
 Number of independent orbital functions:                                     26

 Extrapolation method: initial_guess

 Atomic guess: The first density matrix is obtained in terms of atomic orbitals
               and electronic configurations assigned to each atomic kind

 Spin 1

 Guess for atomic kind: P

 Electronic structure
    Total number of core electrons                                         10.00
    Total number of valence electrons                                       5.00
    Total number of electrons                                              15.00
    Multiplicity                                                   not specified
    S   [  2.00  2.00] 2.00
    P   [  6.00] 3.00


 *******************************************************************************
                  Iteration          Convergence                     Energy [au]
 *******************************************************************************
                          1        0.572653                      -6.064250527461
                          2        0.280008                      -6.257223105200
                          3        0.483453E-02                  -6.297142776629
                          4        0.180297E-03                  -6.297154042919
                          5        0.997046E-04                  -6.297154053613
                          6        0.694860E-04                  -6.297154056036
                          7        0.406115E-06                  -6.297154058324

 Energy components [Hartree]           Total Energy ::           -6.297154058324
                                        Band Energy ::           -1.506731195312
                                     Kinetic Energy ::            2.371946416890
                                   Potential Energy ::           -8.669100475214
                                      Virial (-V/T) ::            3.654846675069
                                        Core Energy ::          -10.073066291116
                                          XC Energy ::           -1.458874787557
                                     Coulomb Energy ::            5.234787020350
                       Total Pseudopotential Energy ::          -12.505480874250
                       Local Pseudopotential Energy ::          -13.856216849132
                    Nonlocal Pseudopotential Energy ::            1.350735974882
                                        Confinement ::            0.604681662434

 Orbital energies  State     L     Occupation   Energy[a.u.]          Energy[eV]

                       1     0          2.000      -0.488209          -13.284849

                       1     1          3.000      -0.176771           -4.810181

 Re-scaling the density matrix to get the right number of electrons for spin 1
                  # Electrons              Trace(P)               Scaling factor
                            5                 5.000                        1.000

 Spin 2

 Guess for atomic kind: P

 Electronic structure
    Total number of core electrons                                         10.00
    Total number of valence electrons                                       5.00
    Total number of electrons                                              15.00
    Multiplicity                                                   not specified
    S   [  2.00  2.00] 2.00
    P   [  6.00] 3.00


 *******************************************************************************
                  Iteration          Convergence                     Energy [au]
 *******************************************************************************
                          1        0.572653                      -6.064250527461
                          2        0.280008                      -6.257223105200
                          3        0.483453E-02                  -6.297142776629
                          4        0.180297E-03                  -6.297154042919
                          5        0.997046E-04                  -6.297154053613
                          6        0.694860E-04                  -6.297154056036
                          7        0.406115E-06                  -6.297154058324

 Energy components [Hartree]           Total Energy ::           -6.297154058324
                                        Band Energy ::           -1.506731195312
                                     Kinetic Energy ::            2.371946416890
                                   Potential Energy ::           -8.669100475214
                                      Virial (-V/T) ::            3.654846675069
                                        Core Energy ::          -10.073066291116
                                          XC Energy ::           -1.458874787557
                                     Coulomb Energy ::            5.234787020350
                       Total Pseudopotential Energy ::          -12.505480874250
                       Local Pseudopotential Energy ::          -13.856216849132
                    Nonlocal Pseudopotential Energy ::            1.350735974882
                                        Confinement ::            0.604681662434

 Orbital energies  State     L     Occupation   Energy[a.u.]          Energy[eV]

                       1     0          2.000      -0.488209          -13.284849

                       1     1          3.000      -0.176771           -4.810181

 Re-scaling the density matrix to get the right number of electrons for spin 2
                  # Electrons              Trace(P)               Scaling factor
                            5                 5.000                        1.000


 SCF WAVEFUNCTION OPTIMIZATION

  ----------------------------------- OT ---------------------------------------

  Allowing for rotations:  F
  Optimizing orbital energies:  F
  Minimizer      : DIIS                : direct inversion
                                         in the iterative subspace
                            using      : -   7 DIIS vectors
                                         - safer DIIS on
  Preconditioner : FULL_ALL            : diagonalization, state selective
  Precond_solver : DEFAULT
  stepsize       :    0.15000000
  energy_gap     :    0.20000000

  eps_taylor     :   0.10000E-15
  max_taylor     :             4

  mixed_precision    : F

  ----------------------------------- OT ---------------------------------------

  Step     Update method      Time    Convergence         Total energy    Change
  ------------------------------------------------------------------------------

  Trace(PS):                                   10.0000000000
  Electronic density on regular grids:        -10.0000000000        0.0000000000
  Core density on regular grids:                9.9999999987       -0.0000000013
  Hard and soft densities (Lebedev):           -0.0000000000       -0.0000000000
  Total Rho_soft + Rho1_hard - Rho1_soft      -10.0000000000
  Total charge density (r-space):              -0.0000000013
  Total Rho_soft + Rho0_soft (g-space):        -0.0000000013

  Decoupling Energy:                                               0.0000943245
     1 OT DIIS     0.15E+00   30.9     0.11939521       -12.2518569613 -1.23E+01

  Trace(PS):                                   10.0000000000
  Electronic density on regular grids:        -10.0000000000        0.0000000000
  Core density on regular grids:                9.9999999987       -0.0000000013
  Hard and soft densities (Lebedev):           -0.0000000000       -0.0000000000
  Total Rho_soft + Rho1_hard - Rho1_soft      -10.0000000000
  Total charge density (r-space):              -0.0000000013
  Total Rho_soft + Rho0_soft (g-space):        -0.0000000013

  Decoupling Energy:                                               0.0000004294
     2 OT DIIS     0.15E+00   37.9     0.06034459       -12.6206888869 -3.69E-01

  Trace(PS):                                   10.0000000000
  Electronic density on regular grids:        -10.0000000000        0.0000000000
  Core density on regular grids:                9.9999999987       -0.0000000013
  Hard and soft densities (Lebedev):           -0.0000000000       -0.0000000000
  Total Rho_soft + Rho1_hard - Rho1_soft      -10.0000000000
  Total charge density (r-space):              -0.0000000013
  Total Rho_soft + Rho0_soft (g-space):        -0.0000000013

  Decoupling Energy:                                               0.0000034607
     3 OT DIIS     0.15E+00   37.8     0.03629964       -12.7329017929 -1.12E-01

  Trace(PS):                                   10.0000000000
  Electronic density on regular grids:        -10.0000000000        0.0000000000
  Core density on regular grids:                9.9999999987       -0.0000000013
  Hard and soft densities (Lebedev):           -0.0000000000       -0.0000000000
  Total Rho_soft + Rho1_hard - Rho1_soft      -10.0000000000
  Total charge density (r-space):              -0.0000000013
  Total Rho_soft + Rho0_soft (g-space):        -0.0000000013

  Decoupling Energy:                                               0.0000000029
     4 OT DIIS     0.15E+00   38.0     0.02222670       -12.7949938984 -6.21E-02

  Trace(PS):                                   10.0000000000
  Electronic density on regular grids:        -10.0000000000        0.0000000000
  Core density on regular grids:                9.9999999987       -0.0000000013
  Hard and soft densities (Lebedev):           -0.0000000000       -0.0000000000
  Total Rho_soft + Rho1_hard - Rho1_soft      -10.0000000000
  Total charge density (r-space):              -0.0000000013
  Total Rho_soft + Rho0_soft (g-space):        -0.0000000013

  Decoupling Energy:                                               0.0000004176
     5 OT DIIS     0.15E+00   37.7     0.02096682       -12.8169896718 -2.20E-02

  Trace(PS):                                   10.0000000000
  Electronic density on regular grids:        -10.0000000000        0.0000000000
  Core density on regular grids:                9.9999999987       -0.0000000013
  Hard and soft densities (Lebedev):           -0.0000000000       -0.0000000000
  Total Rho_soft + Rho1_hard - Rho1_soft      -10.0000000000
  Total charge density (r-space):              -0.0000000013
  Total Rho_soft + Rho0_soft (g-space):        -0.0000000013

  Decoupling Energy:                                               0.0000003872
     6 OT SD       0.15E+00   37.8     0.02228040       -12.8345450910 -1.76E-02

  Trace(PS):                                   10.0000000000
  Electronic density on regular grids:        -10.0000000000        0.0000000000
  Core density on regular grids:                9.9999999987       -0.0000000013
  Hard and soft densities (Lebedev):           -0.0000000000       -0.0000000000
  Total Rho_soft + Rho1_hard - Rho1_soft      -10.0000000000
  Total charge density (r-space):              -0.0000000013
  Total Rho_soft + Rho0_soft (g-space):        -0.0000000013

  Decoupling Energy:                                               0.0000003505
     7 OT SD       0.15E+00   37.8     0.02450095       -12.8548217079 -2.03E-02

  Trace(PS):                                   10.0000000000
  Electronic density on regular grids:        -10.0000000000        0.0000000000
  Core density on regular grids:                9.9999999987       -0.0000000013
  Hard and soft densities (Lebedev):           -0.0000000000       -0.0000000000
  Total Rho_soft + Rho1_hard - Rho1_soft      -10.0000000000
  Total charge density (r-space):              -0.0000000013
  Total Rho_soft + Rho0_soft (g-space):        -0.0000000013

  Decoupling Energy:                                               0.0000004728
     8 OT SD       0.15E+00   37.9     0.02685169       -12.8793659807 -2.45E-02

  Trace(PS):                                   10.0000000000
  Electronic density on regular grids:        -10.0000000000        0.0000000000
  Core density on regular grids:                9.9999999987       -0.0000000013
  Hard and soft densities (Lebedev):           -0.0000000000       -0.0000000000
  Total Rho_soft + Rho1_hard - Rho1_soft      -10.0000000000
  Total charge density (r-space):              -0.0000000013
  Total Rho_soft + Rho0_soft (g-space):        -0.0000000013

  Decoupling Energy:                                               0.0000005935
     9 OT SD       0.15E+00   37.9     0.02878079       -12.9085534445 -2.92E-02

  Trace(PS):                                   10.0000000000
  Electronic density on regular grids:        -10.0000000000        0.0000000000
  Core density on regular grids:                9.9999999987       -0.0000000013
  Hard and soft densities (Lebedev):           -0.0000000000       -0.0000000000
  Total Rho_soft + Rho1_hard - Rho1_soft      -10.0000000000
  Total charge density (r-space):              -0.0000000013
  Total Rho_soft + Rho0_soft (g-space):        -0.0000000013

  Decoupling Energy:                                               0.0000007204
    10 OT SD       0.15E+00   37.8     0.02976086       -12.9415073633 -3.30E-02

  Trace(PS):                                   10.0000000000
  Electronic density on regular grids:        -10.0000000000        0.0000000000
  Core density on regular grids:                9.9999999987       -0.0000000013
  Hard and soft densities (Lebedev):           -0.0000000000       -0.0000000000
  Total Rho_soft + Rho1_hard - Rho1_soft      -10.0000000000
  Total charge density (r-space):              -0.0000000013
  Total Rho_soft + Rho0_soft (g-space):        -0.0000000013

  Decoupling Energy:                                               0.0000008006
    11 OT SD       0.15E+00   37.9     0.02940430       -12.9759627626 -3.45E-02

  Trace(PS):                                   10.0000000000
  Electronic density on regular grids:        -10.0000000000        0.0000000000
  Core density on regular grids:                9.9999999987       -0.0000000013
  Hard and soft densities (Lebedev):           -0.0000000000       -0.0000000000
  Total Rho_soft + Rho1_hard - Rho1_soft      -10.0000000000
  Total charge density (r-space):              -0.0000000013
  Total Rho_soft + Rho0_soft (g-space):        -0.0000000013

  Decoupling Energy:                                               0.0000007973
    12 OT DIIS     0.15E+00   37.9     0.02765502       -13.0087874872 -3.28E-02

  Trace(PS):                                   10.0000000000
  Electronic density on regular grids:        -10.0000000000        0.0000000000
  Core density on regular grids:                9.9999999987       -0.0000000013
  Hard and soft densities (Lebedev):           -0.0000000000       -0.0000000000
  Total Rho_soft + Rho1_hard - Rho1_soft      -10.0000000000
  Total charge density (r-space):              -0.0000000013
  Total Rho_soft + Rho0_soft (g-space):        -0.0000000013

  Decoupling Energy:                                               0.0000006038
    13 OT DIIS     0.15E+00   37.8     0.03806993       -13.0091756512 -3.88E-04

  Trace(PS):                                   10.0000000000
  Electronic density on regular grids:        -10.0000000000        0.0000000000
  Core density on regular grids:                9.9999999987       -0.0000000013
  Hard and soft densities (Lebedev):           -0.0000000000       -0.0000000000
  Total Rho_soft + Rho1_hard - Rho1_soft      -10.0000000000
  Total charge density (r-space):              -0.0000000013
  Total Rho_soft + Rho0_soft (g-space):        -0.0000000013

  Decoupling Energy:                                               0.0000000416
    14 OT SD       0.15E+00   37.8     0.02831399       -13.0668000715 -5.76E-02

  Trace(PS):                                   10.0000000000
  Electronic density on regular grids:        -10.0000000000        0.0000000000
  Core density on regular grids:                9.9999999987       -0.0000000013
  Hard and soft densities (Lebedev):           -0.0000000000       -0.0000000000
  Total Rho_soft + Rho1_hard - Rho1_soft      -10.0000000000
  Total charge density (r-space):              -0.0000000013
  Total Rho_soft + Rho0_soft (g-space):        -0.0000000013

  Decoupling Energy:                                               0.0000000100
    15 OT DIIS     0.15E+00   37.8     0.01752974       -13.0913250996 -2.45E-02

  Trace(PS):                                   10.0000000000
  Electronic density on regular grids:        -10.0000000000        0.0000000000
  Core density on regular grids:                9.9999999987       -0.0000000013
  Hard and soft densities (Lebedev):           -0.0000000000       -0.0000000000
  Total Rho_soft + Rho1_hard - Rho1_soft      -10.0000000000
  Total charge density (r-space):              -0.0000000013
  Total Rho_soft + Rho0_soft (g-space):        -0.0000000013

  Decoupling Energy:                                               0.0000006540
    16 OT DIIS     0.15E+00   37.7     0.02935319       -13.0828933646  8.43E-03

  Trace(PS):                                   10.0000000000
  Electronic density on regular grids:        -10.0000000000        0.0000000000
  Core density on regular grids:                9.9999999987       -0.0000000013
  Hard and soft densities (Lebedev):           -0.0000000000       -0.0000000000
  Total Rho_soft + Rho1_hard - Rho1_soft      -10.0000000000
  Total charge density (r-space):              -0.0000000013
  Total Rho_soft + Rho0_soft (g-space):        -0.0000000013

  Decoupling Energy:                                               0.0000005293
    17 OT SD       0.15E+00   37.7     0.02249732       -13.0993409991 -1.64E-02

  Trace(PS):                                   10.0000000000
  Electronic density on regular grids:        -10.0000000000        0.0000000000
  Core density on regular grids:                9.9999999987       -0.0000000013
  Hard and soft densities (Lebedev):           -0.0000000000       -0.0000000000
  Total Rho_soft + Rho1_hard - Rho1_soft      -10.0000000000
  Total charge density (r-space):              -0.0000000013
  Total Rho_soft + Rho0_soft (g-space):        -0.0000000013

  Decoupling Energy:                                               0.0000000646
    18 OT DIIS     0.15E+00   37.8     0.01053659       -13.1135053391 -1.42E-02

  Trace(PS):                                   10.0000000000
  Electronic density on regular grids:        -10.0000000000        0.0000000000
  Core density on regular grids:                9.9999999987       -0.0000000013
  Hard and soft densities (Lebedev):           -0.0000000000       -0.0000000000
  Total Rho_soft + Rho1_hard - Rho1_soft      -10.0000000000
  Total charge density (r-space):              -0.0000000013
  Total Rho_soft + Rho0_soft (g-space):        -0.0000000013

  Decoupling Energy:                                               0.0000000071
    19 OT DIIS     0.15E+00   37.7     0.00258673       -13.1185776896 -5.07E-03

  Trace(PS):                                   10.0000000000
  Electronic density on regular grids:        -10.0000000000        0.0000000000
  Core density on regular grids:                9.9999999987       -0.0000000013
  Hard and soft densities (Lebedev):           -0.0000000000       -0.0000000000
  Total Rho_soft + Rho1_hard - Rho1_soft      -10.0000000000
  Total charge density (r-space):              -0.0000000013
  Total Rho_soft + Rho0_soft (g-space):        -0.0000000013

  Decoupling Energy:                                               0.0000000000
    20 OT DIIS     0.15E+00   37.8     0.00410280       -13.1184838864  9.38E-05

  Trace(PS):                                   10.0000000000
  Electronic density on regular grids:        -10.0000000000        0.0000000000
  Core density on regular grids:                9.9999999987       -0.0000000013
  Hard and soft densities (Lebedev):           -0.0000000000       -0.0000000000
  Total Rho_soft + Rho1_hard - Rho1_soft      -10.0000000000
  Total charge density (r-space):              -0.0000000013
  Total Rho_soft + Rho0_soft (g-space):        -0.0000000013

  Decoupling Energy:                                               0.0000000001
    21 OT DIIS     0.15E+00   37.8     0.00131041       -13.1191534595 -6.70E-04

  Trace(PS):                                   10.0000000000
  Electronic density on regular grids:        -10.0000000000        0.0000000000
  Core density on regular grids:                9.9999999987       -0.0000000013
  Hard and soft densities (Lebedev):           -0.0000000000       -0.0000000000
  Total Rho_soft + Rho1_hard - Rho1_soft      -10.0000000000
  Total charge density (r-space):              -0.0000000013
  Total Rho_soft + Rho0_soft (g-space):        -0.0000000013

  Decoupling Energy:                                               0.0000000004
    22 OT DIIS     0.15E+00   37.7     0.00088681       -13.1192863492 -1.33E-04

  Trace(PS):                                   10.0000000000
  Electronic density on regular grids:        -10.0000000000        0.0000000000
  Core density on regular grids:                9.9999999987       -0.0000000013
  Hard and soft densities (Lebedev):           -0.0000000000       -0.0000000000
  Total Rho_soft + Rho1_hard - Rho1_soft      -10.0000000000
  Total charge density (r-space):              -0.0000000013
  Total Rho_soft + Rho0_soft (g-space):        -0.0000000013

  Decoupling Energy:                                               0.0000000001
    23 OT DIIS     0.15E+00   37.9     0.00062898       -13.1193514007 -6.51E-05

  Trace(PS):                                   10.0000000000
  Electronic density on regular grids:        -10.0000000000        0.0000000000
  Core density on regular grids:                9.9999999987       -0.0000000013
  Hard and soft densities (Lebedev):           -0.0000000000       -0.0000000000
  Total Rho_soft + Rho1_hard - Rho1_soft      -10.0000000000
  Total charge density (r-space):              -0.0000000013
  Total Rho_soft + Rho0_soft (g-space):        -0.0000000013

  Decoupling Energy:                                               0.0000000001
    24 OT DIIS     0.15E+00   37.8     0.00048754       -13.1193943322 -4.29E-05

  Trace(PS):                                   10.0000000000
  Electronic density on regular grids:        -10.0000000000        0.0000000000
  Core density on regular grids:                9.9999999987       -0.0000000013
  Hard and soft densities (Lebedev):           -0.0000000000       -0.0000000000
  Total Rho_soft + Rho1_hard - Rho1_soft      -10.0000000000
  Total charge density (r-space):              -0.0000000013
  Total Rho_soft + Rho0_soft (g-space):        -0.0000000013

  Decoupling Energy:                                               0.0000000002
    25 OT DIIS     0.15E+00   37.9     0.00037558       -13.1194242379 -2.99E-05

  Trace(PS):                                   10.0000000000
  Electronic density on regular grids:        -10.0000000000        0.0000000000
  Core density on regular grids:                9.9999999987       -0.0000000013
  Hard and soft densities (Lebedev):           -0.0000000000       -0.0000000000
  Total Rho_soft + Rho1_hard - Rho1_soft      -10.0000000000
  Total charge density (r-space):              -0.0000000013
  Total Rho_soft + Rho0_soft (g-space):        -0.0000000013

  Decoupling Energy:                                               0.0000000002
    26 OT DIIS     0.15E+00   37.8     0.00026266       -13.1194511022 -2.69E-05

  Trace(PS):                                   10.0000000000
  Electronic density on regular grids:        -10.0000000000        0.0000000000
  Core density on regular grids:                9.9999999987       -0.0000000013
  Hard and soft densities (Lebedev):           -0.0000000000       -0.0000000000
  Total Rho_soft + Rho1_hard - Rho1_soft      -10.0000000000
  Total charge density (r-space):              -0.0000000013
  Total Rho_soft + Rho0_soft (g-space):        -0.0000000013

  Decoupling Energy:                                               0.0000000001
    27 OT DIIS     0.15E+00   37.8     0.00015970       -13.1194651033 -1.40E-05

  Trace(PS):                                   10.0000000000
  Electronic density on regular grids:        -10.0000000000        0.0000000000
  Core density on regular grids:                9.9999999987       -0.0000000013
  Hard and soft densities (Lebedev):           -0.0000000000       -0.0000000000
  Total Rho_soft + Rho1_hard - Rho1_soft      -10.0000000000
  Total charge density (r-space):              -0.0000000013
  Total Rho_soft + Rho0_soft (g-space):        -0.0000000013

  Decoupling Energy:                                               0.0000000000
    28 OT DIIS     0.15E+00   37.9     0.00009144       -13.1194701456 -5.04E-06

  Trace(PS):                                   10.0000000000
  Electronic density on regular grids:        -10.0000000000        0.0000000000
  Core density on regular grids:                9.9999999987       -0.0000000013
  Hard and soft densities (Lebedev):           -0.0000000000       -0.0000000000
  Total Rho_soft + Rho1_hard - Rho1_soft      -10.0000000000
  Total charge density (r-space):              -0.0000000013
  Total Rho_soft + Rho0_soft (g-space):        -0.0000000013

  Decoupling Energy:                                               0.0000000000
    29 OT DIIS     0.15E+00   37.8     0.00005827       -13.1194712651 -1.12E-06

  Trace(PS):                                   10.0000000000
  Electronic density on regular grids:        -10.0000000000        0.0000000000
  Core density on regular grids:                9.9999999987       -0.0000000013
  Hard and soft densities (Lebedev):           -0.0000000000       -0.0000000000
  Total Rho_soft + Rho1_hard - Rho1_soft      -10.0000000000
  Total charge density (r-space):              -0.0000000013
  Total Rho_soft + Rho0_soft (g-space):        -0.0000000013

  Decoupling Energy:                                               0.0000000000
    30 OT DIIS     0.15E+00   37.7     0.00002234       -13.1194716908 -4.26E-07

  Trace(PS):                                   10.0000000000
  Electronic density on regular grids:        -10.0000000000        0.0000000000
  Core density on regular grids:                9.9999999987       -0.0000000013
  Hard and soft densities (Lebedev):           -0.0000000000       -0.0000000000
  Total Rho_soft + Rho1_hard - Rho1_soft      -10.0000000000
  Total charge density (r-space):              -0.0000000013
  Total Rho_soft + Rho0_soft (g-space):        -0.0000000013

  Decoupling Energy:                                              -0.0000000000
    31 OT DIIS     0.15E+00   37.9     0.00001272       -13.1194717356 -4.49E-08

  Trace(PS):                                   10.0000000000
  Electronic density on regular grids:        -10.0000000000        0.0000000000
  Core density on regular grids:                9.9999999987       -0.0000000013
  Hard and soft densities (Lebedev):           -0.0000000000       -0.0000000000
  Total Rho_soft + Rho1_hard - Rho1_soft      -10.0000000000
  Total charge density (r-space):              -0.0000000013
  Total Rho_soft + Rho0_soft (g-space):        -0.0000000013

  Decoupling Energy:                                              -0.0000000000
    32 OT DIIS     0.15E+00   37.9     0.00000631       -13.1194717517 -1.61E-08

  Trace(PS):                                   10.0000000000
  Electronic density on regular grids:        -10.0000000000        0.0000000000
  Core density on regular grids:                9.9999999987       -0.0000000013
  Hard and soft densities (Lebedev):           -0.0000000000       -0.0000000000
  Total Rho_soft + Rho1_hard - Rho1_soft      -10.0000000000
  Total charge density (r-space):              -0.0000000013
  Total Rho_soft + Rho0_soft (g-space):        -0.0000000013

  Decoupling Energy:                                              -0.0000000000
    33 OT DIIS     0.15E+00   37.7     0.00000392       -13.1194717547 -3.01E-09

  Trace(PS):                                   10.0000000000
  Electronic density on regular grids:        -10.0000000000        0.0000000000
  Core density on regular grids:                9.9999999987       -0.0000000013
  Hard and soft densities (Lebedev):           -0.0000000000       -0.0000000000
  Total Rho_soft + Rho1_hard - Rho1_soft      -10.0000000000
  Total charge density (r-space):              -0.0000000013
  Total Rho_soft + Rho0_soft (g-space):        -0.0000000013

  Decoupling Energy:                                              -0.0000000000
    34 OT DIIS     0.15E+00   37.9     0.00000254       -13.1194717557 -9.64E-10

  Trace(PS):                                   10.0000000000
  Electronic density on regular grids:        -10.0000000000        0.0000000000
  Core density on regular grids:                9.9999999987       -0.0000000013
  Hard and soft densities (Lebedev):           -0.0000000000       -0.0000000000
  Total Rho_soft + Rho1_hard - Rho1_soft      -10.0000000000
  Total charge density (r-space):              -0.0000000013
  Total Rho_soft + Rho0_soft (g-space):        -0.0000000013

  Decoupling Energy:                                              -0.0000000000
    35 OT DIIS     0.15E+00   37.8     0.00000169       -13.1194717561 -4.30E-10

  Trace(PS):                                   10.0000000000
  Electronic density on regular grids:        -10.0000000000        0.0000000000
  Core density on regular grids:                9.9999999987       -0.0000000013
  Hard and soft densities (Lebedev):           -0.0000000000       -0.0000000000
  Total Rho_soft + Rho1_hard - Rho1_soft      -10.0000000000
  Total charge density (r-space):              -0.0000000013
  Total Rho_soft + Rho0_soft (g-space):        -0.0000000013

  Decoupling Energy:                                              -0.0000000000
    36 OT DIIS     0.15E+00   37.8     0.00000110       -13.1194717564 -2.90E-10

  Trace(PS):                                   10.0000000000
  Electronic density on regular grids:        -10.0000000000        0.0000000000
  Core density on regular grids:                9.9999999987       -0.0000000013
  Hard and soft densities (Lebedev):           -0.0000000000       -0.0000000000
  Total Rho_soft + Rho1_hard - Rho1_soft      -10.0000000000
  Total charge density (r-space):              -0.0000000013
  Total Rho_soft + Rho0_soft (g-space):        -0.0000000013

  Decoupling Energy:                                              -0.0000000000
    37 OT DIIS     0.15E+00   37.8     0.00000077       -13.1194717566 -1.59E-10

  Trace(PS):                                   10.0000000000
  Electronic density on regular grids:        -10.0000000000        0.0000000000
  Core density on regular grids:                9.9999999987       -0.0000000013
  Hard and soft densities (Lebedev):           -0.0000000000       -0.0000000000
  Total Rho_soft + Rho1_hard - Rho1_soft      -10.0000000000
  Total charge density (r-space):              -0.0000000013
  Total Rho_soft + Rho0_soft (g-space):        -0.0000000013

  Decoupling Energy:                                              -0.0000000000
    38 OT DIIS     0.15E+00   37.9     0.00000053       -13.1194717567 -1.04E-10

  Trace(PS):                                   10.0000000000
  Electronic density on regular grids:        -10.0000000000        0.0000000000
  Core density on regular grids:                9.9999999987       -0.0000000013
  Hard and soft densities (Lebedev):           -0.0000000000       -0.0000000000
  Total Rho_soft + Rho1_hard - Rho1_soft      -10.0000000000
  Total charge density (r-space):              -0.0000000013
  Total Rho_soft + Rho0_soft (g-space):        -0.0000000013

  Decoupling Energy:                                              -0.0000000000
    39 OT DIIS     0.15E+00   37.8     0.00000029       -13.1194717568 -6.51E-11

  Trace(PS):                                   10.0000000000
  Electronic density on regular grids:        -10.0000000000        0.0000000000
  Core density on regular grids:                9.9999999987       -0.0000000013
  Hard and soft densities (Lebedev):           -0.0000000000       -0.0000000000
  Total Rho_soft + Rho1_hard - Rho1_soft      -10.0000000000
  Total charge density (r-space):              -0.0000000013
  Total Rho_soft + Rho0_soft (g-space):        -0.0000000013

  Decoupling Energy:                                              -0.0000000000
    40 OT DIIS     0.15E+00   37.9     0.00000016       -13.1194717568 -1.66E-11

  Trace(PS):                                   10.0000000000
  Electronic density on regular grids:        -10.0000000000        0.0000000000
  Core density on regular grids:                9.9999999987       -0.0000000013
  Hard and soft densities (Lebedev):           -0.0000000000       -0.0000000000
  Total Rho_soft + Rho1_hard - Rho1_soft      -10.0000000000
  Total charge density (r-space):              -0.0000000013
  Total Rho_soft + Rho0_soft (g-space):        -0.0000000013

  Decoupling Energy:                                              -0.0000000000
    41 OT DIIS     0.15E+00   37.7     0.00000008       -13.1194717568 -4.58E-12

  *** SCF run converged in    41 steps ***


  Electronic density on regular grids:        -10.0000000000        0.0000000000
  Core density on regular grids:                9.9999999987       -0.0000000013
  Hard and soft densities (Lebedev):           -0.0000000000       -0.0000000000
  Total Rho_soft + Rho1_hard - Rho1_soft      -10.0000000000
  Total charge density (r-space):              -0.0000000013
  Total Rho_soft + Rho0_soft (g-space):        -0.0000000013

  Overlap energy of the core charge distribution:               0.00000003649662
  Self energy of the core charge distribution:                -32.80171997370677
  Core Hamiltonian energy:                                      6.96142343836487
  Hartree energy:                                              15.94204265691424
  Exchange-correlation energy:                                 -3.22121549768514
  Dispersion energy:                                           -0.00000241716308

  GAPW| Exc from hard and soft atomic rho1:                     0.00000000000000
  GAPW| local Eh = 1 center integrals:                          0.00000000000000

  Total energy:                                               -13.11947175677926

  Integrated absolute spin density  :                               0.0000000000
  Ideal and single determinant S**2 :                    0.000000      -0.000000


 MULLIKEN POPULATION ANALYSIS

 # Atom  Element  Kind  Atomic population (alpha,beta)   Net charge  Spin moment
      1     P        1           2.500000     2.500000     0.000000     0.000000
      2     P        1           2.500000     2.500000    -0.000000    -0.000000
 # Total charge and spin         5.000000     5.000000    -0.000000     0.000000


  Trace(PS):                                   10.0000000000
  Electronic density on regular grids:        -10.0000000000        0.0000000000
  Core density on regular grids:                9.9999999987       -0.0000000013
  Hard and soft densities (Lebedev):           -0.0000000000       -0.0000000000
  Total Rho_soft + Rho1_hard - Rho1_soft      -10.0000000000
  Total charge density (r-space):              -0.0000000013
  Total Rho_soft + Rho0_soft (g-space):        -0.0000000013

  Decoupling Energy:                                              -0.0000000000

 ENERGY| Total FORCE_EVAL ( QS ) energy (a.u.):              -13.119471756780014


 --------  Informations at step =     1 ------------
  Optimization Method        =                 BFGS
  Total Energy               =       -13.1194717568
  Used time                  =             1590.776

 --------------------------
 OPTIMIZATION STEP:      2
 --------------------------

 DISTRIBUTION OF THE NEIGHBOR LISTS
              Total number of particle pairs:                                  3
              Total number of matrix elements:                               507
              Average number of particle pairs:                                1
              Maximum number of particle pairs:                                2
              Average number of matrix element:                               64
              Maximum number of matrix elements:                             338


 DISTRIBUTION OF THE OVERLAP MATRIX
              Number  of non-zero blocks:                                      3
              Percentage non-zero blocks:                                 100.00
              Average number of blocks per CPU:                                1
              Maximum number of blocks per CPU:                                2
              Average number of matrix elements per CPU:                      64
              Maximum number of matrix elements per CPU:                     338

 Spin 1

 Number of electrons:                                                          5
 Number of occupied orbitals:                                                  5
 Number of molecular orbitals:                                                 5

 Spin 2

 Number of electrons:                                                          5
 Number of occupied orbitals:                                                  5
 Number of molecular orbitals:                                                 5

 Number of orbital functions:                                                 26
 Number of independent orbital functions:                                     26

 Extrapolation method: PS Nth order


 SCF WAVEFUNCTION OPTIMIZATION

  ----------------------------------- OT ---------------------------------------

  Allowing for rotations:  F
  Optimizing orbital energies:  F
  Minimizer      : DIIS                : direct inversion
                                         in the iterative subspace
                            using      : -   7 DIIS vectors
                                         - safer DIIS on
  Preconditioner : FULL_ALL            : diagonalization, state selective
  Precond_solver : DEFAULT
  stepsize       :    0.15000000
  energy_gap     :    0.20000000

  eps_taylor     :   0.10000E-15
  max_taylor     :             4

  mixed_precision    : F

  ----------------------------------- OT ---------------------------------------

  Step     Update method      Time    Convergence         Total energy    Change
  ------------------------------------------------------------------------------

  Trace(PS):                                   10.0000000000
  Electronic density on regular grids:        -10.0000000000        0.0000000000
  Core density on regular grids:                9.9999999986       -0.0000000014
  Hard and soft densities (Lebedev):           -0.0000000000       -0.0000000000
  Total Rho_soft + Rho1_hard - Rho1_soft      -10.0000000000
  Total charge density (r-space):              -0.0000000014
  Total Rho_soft + Rho0_soft (g-space):        -0.0000000014

  Decoupling Energy:                                              -0.0000000000
     1 OT DIIS     0.15E+00   30.3     0.00161992       -13.1197812733 -1.31E+01

  Trace(PS):                                   10.0000000000
  Electronic density on regular grids:        -10.0000000000        0.0000000000
  Core density on regular grids:                9.9999999986       -0.0000000014
  Hard and soft densities (Lebedev):           -0.0000000000       -0.0000000000
  Total Rho_soft + Rho1_hard - Rho1_soft      -10.0000000000
  Total charge density (r-space):              -0.0000000014
  Total Rho_soft + Rho0_soft (g-space):        -0.0000000014

  Decoupling Energy:                                              -0.0000000000
     2 OT DIIS     0.15E+00   37.8     0.00089583       -13.1198594946 -7.82E-05

  Trace(PS):                                   10.0000000000
  Electronic density on regular grids:        -10.0000000000        0.0000000000
  Core density on regular grids:                9.9999999986       -0.0000000014
  Hard and soft densities (Lebedev):           -0.0000000000       -0.0000000000
  Total Rho_soft + Rho1_hard - Rho1_soft      -10.0000000000
  Total charge density (r-space):              -0.0000000014
  Total Rho_soft + Rho0_soft (g-space):        -0.0000000014

  Decoupling Energy:                                              -0.0000000000
     3 OT DIIS     0.15E+00   37.6     0.00033620       -13.1198974046 -3.79E-05

  Trace(PS):                                   10.0000000000
  Electronic density on regular grids:        -10.0000000000        0.0000000000
  Core density on regular grids:                9.9999999986       -0.0000000014
  Hard and soft densities (Lebedev):           -0.0000000000       -0.0000000000
  Total Rho_soft + Rho1_hard - Rho1_soft      -10.0000000000
  Total charge density (r-space):              -0.0000000014
  Total Rho_soft + Rho0_soft (g-space):        -0.0000000014

  Decoupling Energy:                                              -0.0000000000
     4 OT DIIS     0.15E+00   37.6     0.00003283       -13.1199042776 -6.87E-06

  Trace(PS):                                   10.0000000000
  Electronic density on regular grids:        -10.0000000000        0.0000000000
  Core density on regular grids:                9.9999999986       -0.0000000014
  Hard and soft densities (Lebedev):           -0.0000000000       -0.0000000000
  Total Rho_soft + Rho1_hard - Rho1_soft      -10.0000000000
  Total charge density (r-space):              -0.0000000014
  Total Rho_soft + Rho0_soft (g-space):        -0.0000000014

  Decoupling Energy:                                              -0.0000000000
     5 OT DIIS     0.15E+00   37.4     0.00000417       -13.1199043363 -5.87E-08

  Trace(PS):                                   10.0000000000
  Electronic density on regular grids:        -10.0000000000        0.0000000000
  Core density on regular grids:                9.9999999986       -0.0000000014
  Hard and soft densities (Lebedev):           -0.0000000000       -0.0000000000
  Total Rho_soft + Rho1_hard - Rho1_soft      -10.0000000000
  Total charge density (r-space):              -0.0000000014
  Total Rho_soft + Rho0_soft (g-space):        -0.0000000014

  Decoupling Energy:                                              -0.0000000000
     6 OT DIIS     0.15E+00   37.7     0.00000186       -13.1199043371 -8.13E-10

  Trace(PS):                                   10.0000000000
  Electronic density on regular grids:        -10.0000000000        0.0000000000
  Core density on regular grids:                9.9999999986       -0.0000000014
  Hard and soft densities (Lebedev):           -0.0000000000       -0.0000000000
  Total Rho_soft + Rho1_hard - Rho1_soft      -10.0000000000
  Total charge density (r-space):              -0.0000000014
  Total Rho_soft + Rho0_soft (g-space):        -0.0000000014

  Decoupling Energy:                                              -0.0000000000
     7 OT DIIS     0.15E+00   37.6     0.00000004       -13.1199043372 -1.40E-10

  *** SCF run converged in     7 steps ***


  Electronic density on regular grids:        -10.0000000000        0.0000000000
  Core density on regular grids:                9.9999999986       -0.0000000014
  Hard and soft densities (Lebedev):           -0.0000000000       -0.0000000000
  Total Rho_soft + Rho1_hard - Rho1_soft      -10.0000000000
  Total charge density (r-space):              -0.0000000014
  Total Rho_soft + Rho0_soft (g-space):        -0.0000000014

[...]
  Total Energy               =       -13.1199044031
  Real energy change         =        -0.0000000659
  Predicted change in energy =        -0.0000000623
  Scaling factor             =         0.0000000000
  Step size                  =         0.0001660828
  Trust radius               =         0.4724315332
  Decrease in energy         =                  YES
  Used time                  =              303.985

  Convergence check :
  Max. step size             =         0.0001660828
  Conv. limit for step size  =         0.0030000000
  Convergence in step size   =                  YES
  RMS step size              =         0.0001660792
  Conv. limit for RMS step   =         0.0015000000
  Convergence in RMS step    =                  YES
  Max. gradient              =         0.0000071787
  Conv. limit for gradients  =         0.0000500000
  Conv. in gradients         =                  YES
  RMS gradient               =         0.0000071781
  Conv. limit for RMS grad.  =         0.0003000000
  Conv. in RMS gradients     =                  YES
 ---------------------------------------------------

 *******************************************************************************
 ***                    GEOMETRY OPTIMIZATION COMPLETED                      ***
 *******************************************************************************

                    Reevaluating energy at the minimum

 DISTRIBUTION OF THE NEIGHBOR LISTS
              Total number of particle pairs:                                  3
              Total number of matrix elements:                               507
              Average number of particle pairs:                                1
              Maximum number of particle pairs:                                2
              Average number of matrix element:                               64
              Maximum number of matrix elements:                             338


 DISTRIBUTION OF THE OVERLAP MATRIX
              Number  of non-zero blocks:                                      3
              Percentage non-zero blocks:                                 100.00
              Average number of blocks per CPU:                                1
              Maximum number of blocks per CPU:                                2
              Average number of matrix elements per CPU:                      64
              Maximum number of matrix elements per CPU:                     338

 Spin 1

 Number of electrons:                                                          5
 Number of occupied orbitals:                                                  5
 Number of molecular orbitals:                                                 5

 Spin 2

 Number of electrons:                                                          5
 Number of occupied orbitals:                                                  5
 Number of molecular orbitals:                                                 5

 Number of orbital functions:                                                 26
 Number of independent orbital functions:                                     26

 Extrapolation method: PS Nth order


 SCF WAVEFUNCTION OPTIMIZATION

  ----------------------------------- OT ---------------------------------------

  Allowing for rotations:  F
  Optimizing orbital energies:  F
  Minimizer      : DIIS                : direct inversion
                                         in the iterative subspace
                            using      : -   7 DIIS vectors
                                         - safer DIIS on
  Preconditioner : FULL_ALL            : diagonalization, state selective
  Precond_solver : DEFAULT
  stepsize       :    0.15000000
  energy_gap     :    0.20000000

  eps_taylor     :   0.10000E-15
  max_taylor     :             4

  mixed_precision    : F

  ----------------------------------- OT ---------------------------------------

  Step     Update method      Time    Convergence         Total energy    Change
  ------------------------------------------------------------------------------

  Trace(PS):                                   10.0000000000
  Electronic density on regular grids:        -10.0000000000        0.0000000000
  Core density on regular grids:                9.9999999986       -0.0000000014
  Hard and soft densities (Lebedev):           -0.0000000000       -0.0000000000
  Total Rho_soft + Rho1_hard - Rho1_soft      -10.0000000000
  Total charge density (r-space):              -0.0000000014
  Total Rho_soft + Rho0_soft (g-space):        -0.0000000014

  Decoupling Energy:                                              -0.0000000000
     1 OT DIIS     0.15E+00   30.6     0.00165767       -13.1197755505 -1.31E+01

  Trace(PS):                                   10.0000000000
  Electronic density on regular grids:        -10.0000000000        0.0000000000
  Core density on regular grids:                9.9999999986       -0.0000000014
  Hard and soft densities (Lebedev):           -0.0000000000       -0.0000000000
  Total Rho_soft + Rho1_hard - Rho1_soft      -10.0000000000
  Total charge density (r-space):              -0.0000000014
  Total Rho_soft + Rho0_soft (g-space):        -0.0000000014

  Decoupling Energy:                                              -0.0000000000
     2 OT DIIS     0.15E+00   37.7     0.00091662       -13.1198574574 -8.19E-05

  Trace(PS):                                   10.0000000000
  Electronic density on regular grids:        -10.0000000000        0.0000000000
  Core density on regular grids:                9.9999999986       -0.0000000014
  Hard and soft densities (Lebedev):           -0.0000000000       -0.0000000000
  Total Rho_soft + Rho1_hard - Rho1_soft      -10.0000000000
  Total charge density (r-space):              -0.0000000014
  Total Rho_soft + Rho0_soft (g-space):        -0.0000000014

  Decoupling Energy:                                              -0.0000000000
     3 OT DIIS     0.15E+00   37.7     0.00034402       -13.1198971442 -3.97E-05

  Trace(PS):                                   10.0000000000
  Electronic density on regular grids:        -10.0000000000        0.0000000000
  Core density on regular grids:                9.9999999986       -0.0000000014
  Hard and soft densities (Lebedev):           -0.0000000000       -0.0000000000
  Total Rho_soft + Rho1_hard - Rho1_soft      -10.0000000000
  Total charge density (r-space):              -0.0000000014
  Total Rho_soft + Rho0_soft (g-space):        -0.0000000014

  Decoupling Energy:                                              -0.0000000000
     4 OT DIIS     0.15E+00   37.6     0.00003358       -13.1199043407 -7.20E-06

  Trace(PS):                                   10.0000000000
  Electronic density on regular grids:        -10.0000000000        0.0000000000
  Core density on regular grids:                9.9999999986       -0.0000000014
  Hard and soft densities (Lebedev):           -0.0000000000       -0.0000000000
  Total Rho_soft + Rho1_hard - Rho1_soft      -10.0000000000
  Total charge density (r-space):              -0.0000000014
  Total Rho_soft + Rho0_soft (g-space):        -0.0000000014

  Decoupling Energy:                                              -0.0000000000
     5 OT DIIS     0.15E+00   37.6     0.00000429       -13.1199044021 -6.14E-08

  Trace(PS):                                   10.0000000000
  Electronic density on regular grids:        -10.0000000000        0.0000000000
  Core density on regular grids:                9.9999999986       -0.0000000014
  Hard and soft densities (Lebedev):           -0.0000000000       -0.0000000000
  Total Rho_soft + Rho1_hard - Rho1_soft      -10.0000000000
  Total charge density (r-space):              -0.0000000014
  Total Rho_soft + Rho0_soft (g-space):        -0.0000000014

  Decoupling Energy:                                              -0.0000000000
     6 OT DIIS     0.15E+00   37.8     0.00000191       -13.1199044030 -8.53E-10

  Trace(PS):                                   10.0000000000
  Electronic density on regular grids:        -10.0000000000        0.0000000000
  Core density on regular grids:                9.9999999986       -0.0000000014
  Hard and soft densities (Lebedev):           -0.0000000000       -0.0000000000
  Total Rho_soft + Rho1_hard - Rho1_soft      -10.0000000000
  Total charge density (r-space):              -0.0000000014
  Total Rho_soft + Rho0_soft (g-space):        -0.0000000014

  Decoupling Energy:                                              -0.0000000000
     7 OT DIIS     0.15E+00   37.9     0.00000005       -13.1199044031 -1.50E-10

  *** SCF run converged in     7 steps ***


  Electronic density on regular grids:        -10.0000000000        0.0000000000
  Core density on regular grids:                9.9999999986       -0.0000000014
  Hard and soft densities (Lebedev):           -0.0000000000       -0.0000000000
  Total Rho_soft + Rho1_hard - Rho1_soft      -10.0000000000
  Total charge density (r-space):              -0.0000000014
  Total Rho_soft + Rho0_soft (g-space):        -0.0000000014

  Overlap energy of the core charge distribution:               0.00000002225150
  Self energy of the core charge distribution:                -32.80171997370677
  Core Hamiltonian energy:                                      6.92484523550711
  Hartree energy:                                              15.96715066514989
  Exchange-correlation energy:                                 -3.21017765856043
  Dispersion energy:                                           -0.00000269377672

  GAPW| Exc from hard and soft atomic rho1:                     0.00000000000000
  GAPW| local Eh = 1 center integrals:                          0.00000000000000

  Total energy:                                               -13.11990440313540

  Integrated absolute spin density  :                               0.0000000000
  Ideal and single determinant S**2 :                    0.000000       0.000000


 MULLIKEN POPULATION ANALYSIS

 # Atom  Element  Kind  Atomic population (alpha,beta)   Net charge  Spin moment
      1     P        1           2.500000     2.500000    -0.000000    -0.000000
      2     P        1           2.500000     2.500000     0.000000     0.000000
 # Total charge and spin         5.000000     5.000000     0.000000     0.000000


 ENERGY| Total FORCE_EVAL ( QS ) energy (a.u.):              -13.119904403135401


 -------------------------------------------------------------------------------
 ----                             MULTIGRID INFO                            ----
 -------------------------------------------------------------------------------
 count for grid        1:           9912          cutoff [a.u.]          150.00
 count for grid        2:           7468          cutoff [a.u.]           50.00
 count for grid        3:           9252          cutoff [a.u.]           16.67
 count for grid        4:           3568          cutoff [a.u.]            5.56
 total gridlevel count  :          30200

 -------------------------------------------------------------------------------
 -                                                                             -
 -                         MESSAGE PASSING PERFORMANCE                         -
 -                                                                             -
 -------------------------------------------------------------------------------

 ROUTINE             CALLS  TOT TIME [s]  AVE VOLUME [Bytes]  PERFORMANCE [MB/s]
 MP_Group                5         0.000
 MP_Bcast              234         0.029            1759866.            14200.30
 MP_Allreduce         1734        32.291                984.                0.05
 MP_Gather              16         0.001                128.                2.05
 MP_Sync               113         0.000
 MP_Alltoall          2552       434.041          113437807.              666.97
 MP_SendRecv            84         0.001                 20.                1.68
 MP_ISendRecv         3668         0.058             557568.            35261.37
 MP_Wait             13583       146.048
 MP_comm_split         109         0.010
 MP_ISend             7932         2.010            4204207.            16590.93
 MP_IRecv             7932         0.045            4204272.           741072.99
 MP_Recv                28         0.000                370.                0.00
 -------------------------------------------------------------------------------


 -------------------------------------------------------------------------------
 -                                                                             -
 -                           R E F E R E N C E S                               -
 -                                                                             -
 -------------------------------------------------------------------------------
 
 CP2K version 2.4 (Development Version), the CP2K developers group (2013).
 CP2K is freely available from http://www.cp2k.org/ .

 Grimme, S; Antony, J; Ehrlich, S; Krieg, H. 
 JOURNAL OF CHEMICAL PHYSICS, 132 (15), 154104 (2010). 
 A consistent and accurate ab initio parametrization of density
 functional dispersion correction (DFT-D) for the 94 elements H-Pu.
 http://dx.doi.org/10.1063/1.3382344


 VandeVondele, J; Hutter, J. 
 JOURNAL OF CHEMICAL PHYSICS, 127 (11), 114105 (2007). 
 Gaussian basis sets for accurate calculations on molecular systems in
 gas and condensed phases.
 http://dx.doi.org/10.1063/1.2770708


 Krack, M. 
 THEORETICAL CHEMISTRY ACCOUNTS, 114 (1-3), 145-152 (2005). 
 Pseudopotentials for H to Kr optimized for gradient-corrected
 exchange-correlation functionals.
 http://dx.doi.org/10.1007/s00214-005-0655-y


 VandeVondele, J; Krack, M; Mohamed, F; Parrinello, M; Chassaing, T;
 Hutter, J. COMPUTER PHYSICS COMMUNICATIONS, 167 (2), 103-128 (2005). 
 QUICKSTEP: Fast and accurate density functional calculations using a
 mixed Gaussian and plane waves approach.
 http://dx.doi.org/10.1016/j.cpc.2004.12.014


 Frigo, M; Johnson, SG. 
 PROCEEDINGS OF THE IEEE, 93 (2), 216-231 (2005). 
 The design and implementation of FFTW3.
 http://dx.doi.org/10.1109/JPROC.2004.840301


 VandeVondele, J; Hutter, J. 
 JOURNAL OF CHEMICAL PHYSICS, 118 (10), 4365-4369 (2003). 
 An efficient orbital transformation method for electronic structure
 calculations.
 http://dx.doi.org/10.1063/1.1543154


 Lippert, G; Hutter, J; Parrinello, M. 
 THEORETICAL CHEMISTRY ACCOUNTS, 103 (2), 124-140 (1999). 
 The Gaussian and augmented-plane-wave density functional method for ab
 initio molecular dynamics simulations.
 http://dx.doi.org/10.1007/s002140050523


 Krack, M; Parrinello, M. 
 PHYSICAL CHEMISTRY CHEMICAL PHYSICS, 2 (10), 2105-2112 (2000). 
 All-electron ab-initio molecular dynamics.
 http://dx.doi.org/10.1039/b001167n


 Hartwigsen, C; Goedecker, S; Hutter, J. 
 PHYSICAL REVIEW B, 58 (7), 3641-3662 (1998). 
 Relativistic separable dual-space Gaussian pseudopotentials from H to Rn.
 http://dx.doi.org/10.1103/PhysRevB.58.3641


 Perdew, JP; Burke, K; Ernzerhof, M. 
 PHYSICAL REVIEW LETTERS, 77 (18), 3865-3868 (1996). 
 Generalized gradient approximation made simple.
 http://dx.doi.org/10.1103/PhysRevLett.77.3865


 Goedecker, S; Teter, M; Hutter, J. 
 PHYSICAL REVIEW B, 54 (3), 1703-1710 (1996). 
 Separable dual-space Gaussian pseudopotentials.
 http://dx.doi.org/10.1103/PhysRevB.54.1703


 BLOCHL, PE. 
 JOURNAL OF CHEMICAL PHYSICS, 103 (17), 7422-7428 (1995). 
 ELECTROSTATIC DECOUPLING OF PERIODIC IMAGES OF PLANE-WAVE-EXPANDED
 DENSITIES AND DERIVED ATOMIC POINT CHARGES.
 http://dx.doi.org/10.1063/1.470314


 -------------------------------------------------------------------------------
 -                                                                             -
 -                                T I M I N G                                  -
 -                                                                             -
 -------------------------------------------------------------------------------
 SUBROUTINE                       CALLS  ASD         SELF TIME        TOTAL TIME
                                              AVERAGE  MAXIMUM  AVERAGE  MAXIMUM
 CP2K                                 1  1.0    0.234    0.274 2474.283 2474.324
 geoopt_bfgs                          1  3.0    0.002    0.002 2471.049 2471.049
 cp_geo_opt                           1  2.0    0.000    0.000 2471.049 2471.049
 cp_eval_at                           4  4.0    0.002    0.003 2471.029 2471.030
 qs_energies_scf                      4  5.8    0.001    0.001 2378.540 2378.540
 scf_env_do_scf                       4  6.8    0.000    0.001 2342.829 2342.829
 scf_env_do_scf_inner_loop           62  7.9    0.019    0.022 2221.427 2221.428
 qs_forces                            3  5.0    0.002    0.002 2197.619 2197.619
 qs_ks_build_kohn_sham_matrix        65  9.8    1.792    3.445 1972.742 1972.743
 fft_wrap_pw1pw2                   2224 12.9    0.121    0.136 1862.809 1905.807
 qs_ks_update_qs_env                 66  8.9    0.004    0.005 1880.294 1880.295
 fft_wrap_pw1pw2_150               1438 13.9  133.133  170.125 1785.427 1825.369
 fft3d_ps                          2224 14.9  831.937  873.560 1423.442 1489.762
 qs_vxc_create                       65 10.8    0.007    0.008 1361.585 1361.586
 xc_vxc_pw_create                    65 11.8   32.209   38.631 1361.578 1361.580
 xc_rho_set_and_dset_create          65 12.8   16.759   23.946  591.075  642.604
 qs_rho_update_rho                   66  8.9    0.004    0.006  470.813  470.816
 calculate_rho_elec                 132  9.9    8.387   11.655  470.802  470.804
 density_rs2pw                      132 10.9    0.018    0.024  456.320  460.842
 yz_to_x                           1117 15.5  300.709  371.230  300.709  371.230
 sum_up_and_integrate                65 10.8   12.497   17.947  314.203  314.322
 x_to_yz                           1107 16.3  290.779  307.924  290.779  307.924
 integrate_v_rspace                 130 11.8    0.266    0.349  301.705  305.736
 potential_pw2rs                    130 12.8    0.637    0.770  301.343  305.318
 rs_pw_transfer                    1185 12.7    0.059    0.079  255.364  258.755
 pw_scatter_p                      1107 15.3  156.784  158.841  156.784  158.841
 pw_gather_p                       1117 14.5  142.656  144.398  142.656  144.398
 init_scf_loop                        4  7.8    0.000    0.001  121.395  121.395
 prepare_gapw_den                    65 10.8    0.005    0.007  113.276  114.260
 put_rho0_on_grid                    65 11.8    2.966    4.431  113.271  114.256
 rs_pw_transfer_PW2RS_150           198 14.0   93.231  100.935  100.036  109.035
 rs_pw_transfer_RS2PW_150           201 13.1   92.272   98.546   92.272   98.546
 qs_ks_ddapc                         65 10.8    0.001    0.003   93.922   96.773
 qs_ks_update_qs_env_forces           3  6.0    0.000    0.000   92.461   92.461
 xc_functional_eval                  65 13.8    0.007    0.014   36.856   84.193
 pbe_lsd_eval                        65 14.8   36.850   84.189   36.850   84.189
 pw_derive                          780 13.3   71.686   74.838   71.686   74.838
 fft_wrap_pw1pw2_50                 262 13.8    5.619    6.453   64.649   67.263
 pw_copy                           1370 13.3   47.315   56.997   47.315   56.997
 pw_axpy                           1521 12.1   47.043   54.872   47.043   54.872
 -------------------------------------------------------------------------------

  **** **** ******  **  PROGRAM ENDED AT                 2013-09-18 11:09:55.157
 ***** ** ***  *** **   PROGRAM RAN ON                                        n6
 **    ****   ******    PROGRAM RAN BY                                       spf
 ***** **    ** ** **   PROGRAM PROCESS ID                                 14118
  **** **  *******  **  PROGRAM STOPPED IN                     /mnt/CalcC/spf/P2
