 DBCSR| Multiplication driver                                                SMM
 DBCSR| Multiplication stack size                                           1000
 DBCSR| Multiplication size stacks                                             0
 DBCSR| Use subcommunicators                                                   T
 DBCSR| Use MPI combined types                                                 F
 DBCSR| Use MPI memory allocation                                              T
 DBCSR| Use Communication thread                                               T
 DBCSR| Communication thread load                                            100


  **** **** ******  **  PROGRAM STARTED AT               2013-08-07 00:27:26.955
 ***** ** ***  *** **   PROGRAM STARTED ON                                    n1
 **    ****   ******    PROGRAM STARTED BY                                   spf
 ***** **    ** ** **   PROGRAM PROCESS ID                                 10492
  **** **  *******  **  PROGRAM STARTED IN                     /mnt/CalcC/spf/P4

 CP2K| version string:                    CP2K version 2.4 (Development Version)
 CP2K| source code revision number:                                        12836
 CP2K| is freely available from                             http://www.cp2k.org/
 CP2K| Program compiled at                         Mo 15. Apr 13:01:07 CEST 2013
 CP2K| Program compiled on                                                  head
 CP2K| Program compiled for                                     Linux-x86-64-gcc
 CP2K| Input file name                                                    P4.inp

 GLOBAL| Force Environment number                                              1
 GLOBAL| Basis set file name                                           BASIS_SET
 GLOBAL| Geminal file name                                         BASIS_GEMINAL
 GLOBAL| Potential file name                                           POTENTIAL
 GLOBAL| MM Potential file name                                     MM_POTENTIAL
 GLOBAL| Coordinate file name                                      __STD_INPUT__
 GLOBAL| Method name                                                        CP2K
 GLOBAL| Project name                                                         P4
 GLOBAL| Preferred FFT library                                             FFTW3
 GLOBAL| Run type                                                        GEO_OPT
 GLOBAL| All-to-all communication in single precision                          F
 GLOBAL| FFTs using library dependent lengths                                  F
 GLOBAL| Global print level                                               MEDIUM
 GLOBAL| Total number of message passing processes                             8
 GLOBAL| Number of threads for this process                                    1
 GLOBAL| This output is from process                                           0

 MEMORY| system memory details [Kb]
 MEMORY|                        rank 0           min           max       average
 MEMORY| MemTotal             33018288      33018288      33018288      33018288
 MEMORY| MemFree              31329924      31329924      31329924      31329924
 MEMORY| Buffers                  5168          5168          5168          5168
 MEMORY| Cached                 990544        990544        990544        990544
 MEMORY| Slab                    65212         65212         65212         65212
 MEMORY| SReclaimable            17644         17644         17644         17644
 MEMORY| MemLikelyFree        32343280      32343280      32343280      32343280


 *** Fundamental physical constants (SI units) ***

 *** Literature: B. J. Mohr and B. N. Taylor,
 ***             CODATA recommended values of the fundamental physical
 ***             constants: 2006, Web Version 5.1
 ***             http://physics.nist.gov/constants

 Speed of light in vacuum [m/s]                             2.99792458000000E+08
 Magnetic constant or permeability of vacuum [N/A**2]       1.25663706143592E-06
 Electric constant or permittivity of vacuum [F/m]          8.85418781762039E-12
 Planck constant (h) [J*s]                                  6.62606896000000E-34
 Planck constant (h-bar) [J*s]                              1.05457162825177E-34
 Elementary charge [C]                                      1.60217648700000E-19
 Electron mass [kg]                                         9.10938215000000E-31
 Electron g factor [ ]                                     -2.00231930436220E+00
 Proton mass [kg]                                           1.67262163700000E-27
 Fine-structure constant                                    7.29735253760000E-03
 Rydberg constant [1/m]                                     1.09737315685270E+07
 Avogadro constant [1/mol]                                  6.02214179000000E+23
 Boltzmann constant [J/K]                                   1.38065040000000E-23
 Atomic mass unit [kg]                                      1.66053878200000E-27
 Bohr radius [m]                                            5.29177208590000E-11

 *** Conversion factors ***

 [u] -> [a.u.]                                              1.82288848426455E+03
 [Angstrom] -> [Bohr] = [a.u.]                              1.88972613288564E+00
 [a.u.] = [Bohr] -> [Angstrom]                              5.29177208590000E-01
 [a.u.] -> [s]                                              2.41888432650478E-17
 [a.u.] -> [fs]                                             2.41888432650478E-02
 [a.u.] -> [J]                                              4.35974393937059E-18
 [a.u.] -> [K]                                              3.15774647902944E+05
 [a.u.] -> [kJ/mol]                                         2.62549961709828E+03
 [a.u.] -> [kcal/mol]                                       6.27509468713739E+02
 [a.u.] -> [Pa]                                             2.94210107994716E+13
 [a.u.] -> [bar]                                            2.94210107994716E+08
 [a.u.] -> [atm]                                            2.90362800883016E+08
 [a.u.] -> [eV]                                             2.72113838565563E+01
 [a.u.] -> [Hz]                                             6.57968392072181E+15
 [a.u.] -> [1/cm] (wave numbers)                            2.19474631370540E+05
 [a.u./Bohr**2] -> [1/cm]                                   5.14048714338585E+03
 

 PW_GRID: Information for grid number                                          1
 PW_GRID: Cutoff [a.u.]                                                      4.4
 PW_GRID: spherical cutoff:                                                   NO
 PW_GRID:   Bounds   1              0      49                Points:          50
 PW_GRID:   Bounds   2              0      49                Points:          50
 PW_GRID:   Bounds   3              0      49                Points:          50
 PW_GRID: Volume element (a.u.^3)   1.063         Volume (a.u.^3)    132827.4696
 PW_GRID: Grid span                                                    HALFSPACE

 CELL| Volume [angstrom^3]:                                            19683.000
 CELL| Vector a [angstrom]:      27.000     0.000     0.000    |a| =      27.000
 CELL| Vector b [angstrom]:       0.000    27.000     0.000    |b| =      27.000
 CELL| Vector c [angstrom]:       0.000     0.000    27.000    |c| =      27.000
 CELL| Angle (b,c), alpha [degree]:                                       90.000
 CELL| Angle (a,c), beta  [degree]:                                       90.000
 CELL| Angle (a,b), gamma [degree]:                                       90.000
 CELL| Orthorhombic:                                                         YES

 CELL_REF| Volume [angstrom^3]:                                        19683.000
 CELL_REF| Vector a [angstrom    27.000     0.000     0.000    |a| =      27.000
 CELL_REF| Vector b [angstrom     0.000    27.000     0.000    |b| =      27.000
 CELL_REF| Vector c [angstrom     0.000     0.000    27.000    |c| =      27.000
 CELL_REF| Angle (b,c), alpha [degree]:                                   90.000
 CELL_REF| Angle (a,c), beta  [degree]:                                   90.000
 CELL_REF| Angle (a,b), gamma [degree]:                                   90.000
 CELL_REF| Orthorhombic:                                                     YES

 CELL_TOP| Volume [angstrom^3]:                                        19683.000
 CELL_TOP| Vector a [angstrom    27.000     0.000     0.000    |a| =      27.000
 CELL_TOP| Vector b [angstrom     0.000    27.000     0.000    |b| =      27.000
 CELL_TOP| Vector c [angstrom     0.000     0.000    27.000    |c| =      27.000
 CELL_TOP| Angle (b,c), alpha [degree]:                                   90.000
 CELL_TOP| Angle (a,c), beta  [degree]:                                   90.000
 CELL_TOP| Angle (a,b), gamma [degree]:                                   90.000
 CELL_TOP| Orthorhombic:                                                     YES

 GENERATE|  Preliminary Number of Bonds generated:                             0
 GENERATE|  Achieved consistency in connectivity generation.

 *******************************************************************************
 *******************************************************************************
 **                                                                           **
 **     #####                         ##              ##                      **
 **    ##   ##            ##          ##              ##                      **
 **   ##     ##                       ##            ######                    **
 **   ##     ##  ##   ##  ##   #####  ##  ##   ####   ##    #####    #####    **
 **   ##     ##  ##   ##  ##  ##      ## ##   ##      ##   ##   ##  ##   ##   **
 **   ##  ## ##  ##   ##  ##  ##      ####     ###    ##   ######   ######    **
 **    ##  ###   ##   ##  ##  ##      ## ##      ##   ##   ##       ##        **
 **     #######   #####   ##   #####  ##  ##  ####    ##    #####   ##        **
 **           ##                                                    ##        **
 **                                                                           **
 **                                                ... make the atoms dance   **
 **                                                                           **
 **            Copyright (C) by CP2K Developers Group (2000 - 2013)           **
 **                                                                           **
 *******************************************************************************

 DFT| Spin unrestricted (spin-polarized) Kohn-Sham calculation               UKS
 DFT| Multiplicity                                                             1
 DFT| Number of spin states                                                    2
 DFT| Charge                                                                   0
 DFT| Self-interaction correction (SIC)                                       NO
 DFT| Cutoffs: density                                              1.000000E-10
 DFT|          gradient                                             1.000000E-10
 DFT|          tau                                                  1.000000E-10
 DFT|          cutoff_smoothing_range                               0.000000E+00
 DFT| XC density smoothing                                                  NONE
 DFT| XC derivatives                                                          PW
 FUNCTIONAL| ROUTINE=NEW
 FUNCTIONAL| PBE:
 FUNCTIONAL| J.P.Perdew, K.Burke, M.Ernzerhof, Phys. Rev. Letter, vol. 77, n 18,
 FUNCTIONAL|  pp. 3865-3868, (1996){spin polarized}
 vdW POTENTIAL|                                                   Pair Potential
 vdW POTENTIAL|          Potential Form: S. Grimme et al, JCP 132: 154104 (2010)
 vdW POTENTIAL|          Cutoff Radius [Bohr]:                             22.68
 vdW POTENTIAL|          s6 Scaling Factor:                               1.0000
 vdW POTENTIAL|          sr6 Scaling Factor:                              1.2170
 vdW POTENTIAL|          s8 Scaling Factor:                               0.7220
 vdW POTENTIAL|          Cutoff for CN calculation:                   0.1000E-05

 QS| Method:                                                                GAPW
 QS| Density plane wave grid type                        NON-SPHERICAL FULLSPACE
 QS| Number of grid levels:                                                    4
 QS| Density cutoff [a.u.]:                                                150.0
 QS| Multi grid cutoff [a.u.]: 1) grid level                               150.0
 QS|                           2) grid level                                50.0
 QS|                           3) grid level                                16.7
 QS|                           4) grid level                                 5.6
 QS| Grid level progression factor:                                          3.0
 QS| Relative density cutoff [a.u.]:                                        15.0
 QS| Consistent realspace mapping and integration 
 QS| Interaction thresholds: eps_pgf_orb:                                1.0E-05
 QS|                         eps_filter_matrix:                          0.0E+00
 QS|                         eps_core_charge:                            1.0E-12
 QS|                         eps_rho_gspace:                             1.0E-10
 QS|                         eps_rho_rspace:                             1.0E-10
 QS|                         eps_gvg_rspace:                             1.0E-05
 QS|                         eps_ppl:                                    1.0E-02
 QS|                         eps_ppnl:                                   1.0E-07
 QS| GAPW|                   eps_fit:                                    1.0E-04
 QS| GAPW|                   eps_iso:                                    1.0E-12
 QS| GAPW|                   eps_svd:                                    1.0E-08
 QS| GAPW|                   eps_cpc:                                    1.0E-10
 QS| GAPW|   atom-r-grid: quadrature:                 GC_LOG                        
 QS| GAPW|      atom-s-grid:  max l :                                          4
 QS| GAPW|      max_l_rho0 :                                                   2
 QS| GAPW|      At least one kind is NOT PAW, i.e. it has only soft AO 
 QS| GAPW|      The NOT PAW atoms are treated fully GPW


 ATOMIC KIND INFORMATION

  1. Atomic kind: P                                     Number of atoms:       4

     Orbital Basis Set                                           DZVP-MOLOPT-GTH

       Number of orbital shell sets:                                           1
       Number of orbital shells:                                               5
       Number of primitive Cartesian functions:                                6
       Number of Cartesian basis functions:                                   14
       Number of spherical basis functions:                                   13
       Norm type:                                                              2

       Normalised Cartesian orbitals:

                        Set   Shell   Orbital            Exponent    Coefficient

                          1       1    2s                3.338153       0.070371
                                                         1.833920      -0.349206
                                                         0.688532      -0.062221
                                                         0.372377       0.229985
                                                         0.166131       0.092364
                                                         0.075778       0.009125

                          1       2    3s                3.338153      -0.201073
                                                         1.833920       0.702194
                                                         0.688532       0.130768
                                                         0.372377      -0.497372
                                                         0.166131       0.102904
                                                         0.075778       0.110045

                          1       3    3px               3.338153      -0.086704
                                                         1.833920      -0.124680
                                                         0.688532       0.120237
                                                         0.372377       0.175425
                                                         0.166131       0.058965
                                                         0.075778       0.011013
                          1       3    3py               3.338153      -0.086704
                                                         1.833920      -0.124680
                                                         0.688532       0.120237
                                                         0.372377       0.175425
                                                         0.166131       0.058965
                                                         0.075778       0.011013
                          1       3    3pz               3.338153      -0.086704
                                                         1.833920      -0.124680
                                                         0.688532       0.120237
                                                         0.372377       0.175425
                                                         0.166131       0.058965
                                                         0.075778       0.011013

                          1       4    4px               3.338153       0.044134
                                                         1.833920       0.416759
                                                         0.688532      -0.362830
                                                         0.372377      -0.135315
                                                         0.166131       0.030855
                                                         0.075778       0.054348
                          1       4    4py               3.338153       0.044134
                                                         1.833920       0.416759
                                                         0.688532      -0.362830
                                                         0.372377      -0.135315
                                                         0.166131       0.030855
                                                         0.075778       0.054348
                          1       4    4pz               3.338153       0.044134
                                                         1.833920       0.416759
                                                         0.688532      -0.362830
                                                         0.372377      -0.135315
                                                         0.166131       0.030855
                                                         0.075778       0.054348

                          1       5    4dx2              3.338153       0.250913
                                                         1.833920       0.524236
                                                         0.688532       0.341345
                                                         0.372377       0.113132
                                                         0.166131       0.017371
                                                         0.075778       0.000431
                          1       5    4dxy              3.338153       0.434593
                                                         1.833920       0.908003
                                                         0.688532       0.591227
                                                         0.372377       0.195951
                                                         0.166131       0.030087
                                                         0.075778       0.000746
                          1       5    4dxz              3.338153       0.434593
                                                         1.833920       0.908003
                                                         0.688532       0.591227
                                                         0.372377       0.195951
                                                         0.166131       0.030087
                                                         0.075778       0.000746
                          1       5    4dy2              3.338153       0.250913
                                                         1.833920       0.524236
                                                         0.688532       0.341345
                                                         0.372377       0.113132
                                                         0.166131       0.017371
                                                         0.075778       0.000431
                          1       5    4dyz              3.338153       0.434593
                                                         1.833920       0.908003
                                                         0.688532       0.591227
                                                         0.372377       0.195951
                                                         0.166131       0.030087
                                                         0.075778       0.000746
                          1       5    4dz2              3.338153       0.250913
                                                         1.833920       0.524236
                                                         0.688532       0.341345
                                                         0.372377       0.113132
                                                         0.166131       0.017371
                                                         0.075778       0.000431

     Potential information for                                        GTH-PBE-q5

       Description:                       Goedecker-Teter-Hutter pseudopotential
                                           Goedecker et al., PRB 54, 1703 (1996)
                                          Hartwigsen et al., PRB 58, 3641 (1998)
                                                      Krack, TCA 114, 145 (2005)

       Gaussian exponent of the core charge distribution:               2.704164
       Electronic configuration (s p d ...):                               2   3

       Parameters of the local part of the GTH pseudopotential:

                          rloc        C1          C2          C3          C4
                        0.430000   -5.875943

       Parameters of the non-local part of the GTH pseudopotential:

                   l      r(l)      h(i,j,l)

                   0    0.396377   11.008862   -3.470356
                                   -3.470356    4.480210
                   1    0.448298    3.056064


 MOLECULE KIND INFORMATION


 All atoms are their own molecule, skipping detailed information


 TOTAL NUMBERS AND MAXIMUM NUMBERS

  Total number of            - Atomic kinds:                                   1
                             - Atoms:                                          4
                             - Shell sets:                                     4
                             - Shells:                                        20
                             - Primitive Cartesian functions:                 24
                             - Cartesian basis functions:                     56
                             - Spherical basis functions:                     52

  Maximum angular momentum of- Orbital basis functions:                        2
                             - Local part of the GTH pseudopotential:          0
                             - Non-local part of the GTH pseudopotential:      2


 MODULE QUICKSTEP:  ATOMIC COORDINATES IN angstrom

  Atom  Kind  Element       X           Y           Z          Z(eff)       Mass

       1     1 P   15   13.124610   13.800260   14.523150      5.00      30.9738
       2     1 P   15   12.571950   13.203990   12.476850      5.00      30.9738
       3     1 P   15   14.428050   12.440210   13.382860      5.00      30.9738
       4     1 P   15   14.275530   14.559790   12.806270      5.00      30.9738




 SCF PARAMETERS         Density guess:                                    ATOMIC
                        --------------------------------------------------------
                        max_scf:                                             200
                        max_scf_history:                                       0
                        max_diis:                                              4
                        --------------------------------------------------------
                        eps_scf:                                        1.00E-07
                        eps_scf_history:                                0.00E+00
                        eps_diis:                                       1.00E-01
                        eps_eigval:                                     1.00E-05
                        --------------------------------------------------------
                        level_shift [a.u.]:                                 0.00
                        --------------------------------------------------------
                        No outer SCF

 PW_GRID: Information for grid number                                          2
 PW_GRID: Grid distributed over                                     8 processors
 PW_GRID: Real space group dimensions                                     8    1
 PW_GRID: the grid is blocked:                                                NO
 PW_GRID: Cutoff [a.u.]                                                    150.0
 PW_GRID: spherical cutoff:                                                   NO
 PW_GRID:   Bounds   1           -144     143                Points:         288
 PW_GRID:   Bounds   2           -144     143                Points:         288
 PW_GRID:   Bounds   3           -144     143                Points:         288
 PW_GRID: Volume element (a.u.^3)  0.5560E-02     Volume (a.u.^3)    132827.4696
 PW_GRID: Grid span                                                    FULLSPACE
 PW_GRID:   Distribution                         Average         Max         Min
 PW_GRID:   G-Vectors                          2985984.0     2985984     2985984
 PW_GRID:   G-Rays                               10368.0       10368       10368
 PW_GRID:   Real Space Points                  2985984.0     2985984     2985984

 PW_GRID: Information for grid number                                          3
 PW_GRID: Grid distributed over                                     8 processors
 PW_GRID: Real space group dimensions                                     8    1
 PW_GRID: the grid is blocked:                                                NO
 PW_GRID: Cutoff [a.u.]                                                     50.0
 PW_GRID: spherical cutoff:                                                   NO
 PW_GRID:   Bounds   1            -90      89                Points:         180
 PW_GRID:   Bounds   2            -90      89                Points:         180
 PW_GRID:   Bounds   3            -90      89                Points:         180
 PW_GRID: Volume element (a.u.^3)  0.2278E-01     Volume (a.u.^3)    132827.4696
 PW_GRID: Grid span                                                    FULLSPACE
 PW_GRID:   Distribution                         Average         Max         Min
 PW_GRID:   G-Vectors                           729000.0      729360      728820
 PW_GRID:   G-Rays                                4050.0        4052        4049
 PW_GRID:   Real Space Points                   729000.0      745200      712800

 PW_GRID: Information for grid number                                          4
 PW_GRID: Grid distributed over                                     8 processors
 PW_GRID: Real space group dimensions                                     8    1
 PW_GRID: the grid is blocked:                                                NO
 PW_GRID: Cutoff [a.u.]                                                     16.7
 PW_GRID: spherical cutoff:                                                   NO
 PW_GRID:   Bounds   1            -48      47                Points:          96
 PW_GRID:   Bounds   2            -48      47                Points:          96
 PW_GRID:   Bounds   3            -48      47                Points:          96
 PW_GRID: Volume element (a.u.^3)  0.1501         Volume (a.u.^3)    132827.4696
 PW_GRID: Grid span                                                    FULLSPACE
 PW_GRID:   Distribution                         Average         Max         Min
 PW_GRID:   G-Vectors                           110592.0      110688      110496
 PW_GRID:   G-Rays                                1152.0        1153        1151
 PW_GRID:   Real Space Points                   110592.0      110592      110592

 PW_GRID: Information for grid number                                          5
 PW_GRID: Grid distributed over                                     8 processors
 PW_GRID: Real space group dimensions                                     8    1
 PW_GRID: the grid is blocked:                                                NO
 PW_GRID: Cutoff [a.u.]                                                      5.6
 PW_GRID: spherical cutoff:                                                   NO
 PW_GRID:   Bounds   1            -30      29                Points:          60
 PW_GRID:   Bounds   2            -30      29                Points:          60
 PW_GRID:   Bounds   3            -30      29                Points:          60
 PW_GRID: Volume element (a.u.^3)  0.6149         Volume (a.u.^3)    132827.4696
 PW_GRID: Grid span                                                    FULLSPACE
 PW_GRID:   Distribution                         Average         Max         Min
 PW_GRID:   G-Vectors                            27000.0       27120       26940
 PW_GRID:   G-Rays                                 450.0         452         449
 PW_GRID:   Real Space Points                    27000.0       28800       25200

 RS_GRID: Information for grid number                                          2
 RS_GRID:   Bounds   1           -144     143                Points:         288
 RS_GRID:   Bounds   2           -144     143                Points:         288
 RS_GRID:   Bounds   3           -144     143                Points:         288
 RS_GRID: Real space distribution over                                  2 groups
 RS_GRID: Real space distribution along direction                              2
 RS_GRID: Border size                                                         19
 RS_GRID: Real space distribution over                                  4 groups
 RS_GRID: Real space distribution along direction                              3
 RS_GRID: Border size                                                         19
 RS_GRID:   Distribution                         Average         Max         Min
 RS_GRID:   Planes                                 182.0         182         182
 RS_GRID:   Distribution                         Average         Max         Min
 RS_GRID:   Planes                                 110.0         110         110

 RS_GRID: Information for grid number                                          3
 RS_GRID:   Bounds   1            -90      89                Points:         180
 RS_GRID:   Bounds   2            -90      89                Points:         180
 RS_GRID:   Bounds   3            -90      89                Points:         180
 RS_GRID: Real space distribution over                                  2 groups
 RS_GRID: Real space distribution along direction                              2
 RS_GRID: Border size                                                         18
 RS_GRID: Real space distribution over                                  4 groups
 RS_GRID: Real space distribution along direction                              3
 RS_GRID: Border size                                                         18
 RS_GRID:   Distribution                         Average         Max         Min
 RS_GRID:   Planes                                 126.0         126         126
 RS_GRID:   Distribution                         Average         Max         Min
 RS_GRID:   Planes                                  81.0          81          81

 RS_GRID: Information for grid number                                          4
 RS_GRID:   Bounds   1            -48      47                Points:          96
 RS_GRID:   Bounds   2            -48      47                Points:          96
 RS_GRID:   Bounds   3            -48      47                Points:          96
 RS_GRID: Real space fully replicated
 RS_GRID: Group size                                                           1

 RS_GRID: Information for grid number                                          5
 RS_GRID:   Bounds   1            -30      29                Points:          60
 RS_GRID:   Bounds   2            -30      29                Points:          60
 RS_GRID:   Bounds   3            -30      29                Points:          60
 RS_GRID: Real space fully replicated
 RS_GRID: Group size                                                           1

 DISTRIBUTION OF THE PARTICLES (ROWS)
              Process row      Number of particles         Number of matrix rows
                        0                        2                            -1
                        1                        2                            -1
                      Sum                        4                            -1

 DISTRIBUTION OF THE PARTICLES (COLUMNS)
              Process col      Number of particles      Number of matrix columns
                        0                        1                            -1
                        1                        1                            -1
                        2                        1                            -1
                        3                        1                            -1
                      Sum                        4                            -1

 *******************************************************************************
 ***                     STARTING GEOMETRY OPTIMIZATION                      ***
 ***                                   BFGS                                  ***
 *******************************************************************************

 DISTRIBUTION OF THE NEIGHBOR LISTS
              Total number of particle pairs:                                 10
              Total number of matrix elements:                              1690
              Average number of particle pairs:                                2
              Maximum number of particle pairs:                                2
              Average number of matrix element:                              212
              Maximum number of matrix elements:                             338


 DISTRIBUTION OF THE OVERLAP MATRIX
              Number  of non-zero blocks:                                     10
              Percentage non-zero blocks:                                 100.00
              Average number of blocks per CPU:                                2
              Maximum number of blocks per CPU:                                2
              Average number of matrix elements per CPU:                     212
              Maximum number of matrix elements per CPU:                     338

 Spin 1

 Number of electrons:                                                         10
 Number of occupied orbitals:                                                 10
 Number of molecular orbitals:                                                10

 Spin 2

 Number of electrons:                                                         10
 Number of occupied orbitals:                                                 10
 Number of molecular orbitals:                                                10

 Number of orbital functions:                                                 52
 Number of independent orbital functions:                                     52

 Extrapolation method: initial_guess

 Atomic guess: The first density matrix is obtained in terms of atomic orbitals
               and electronic configurations assigned to each atomic kind

 Spin 1

 Guess for atomic kind: P

 Electronic structure
    Total number of core electrons                                         10.00
    Total number of valence electrons                                       5.00
    Total number of electrons                                              15.00
    Multiplicity                                                   not specified
    S   [  2.00  2.00] 2.00
    P   [  6.00] 3.00


 *******************************************************************************
                  Iteration          Convergence                     Energy [au]
 *******************************************************************************
                          1        0.572653                      -6.064250527461
                          2        0.280008                      -6.257223105200
                          3        0.483453E-02                  -6.297142776629
                          4        0.180297E-03                  -6.297154042919
                          5        0.997046E-04                  -6.297154053613
                          6        0.694860E-04                  -6.297154056036
                          7        0.406115E-06                  -6.297154058324

 Energy components [Hartree]           Total Energy ::           -6.297154058324
                                        Band Energy ::           -1.506731195312
                                     Kinetic Energy ::            2.371946416890
                                   Potential Energy ::           -8.669100475214
                                      Virial (-V/T) ::            3.654846675069
                                        Core Energy ::          -10.073066291116
                                          XC Energy ::           -1.458874787557
                                     Coulomb Energy ::            5.234787020350
                       Total Pseudopotential Energy ::          -12.505480874250
                       Local Pseudopotential Energy ::          -13.856216849132
                    Nonlocal Pseudopotential Energy ::            1.350735974882
                                        Confinement ::            0.604681662434

 Orbital energies  State     L     Occupation   Energy[a.u.]          Energy[eV]

                       1     0          2.000      -0.488209          -13.284849

                       1     1          3.000      -0.176771           -4.810181

 Re-scaling the density matrix to get the right number of electrons for spin 1
                  # Electrons              Trace(P)               Scaling factor
                           10                10.000                        1.000

 Spin 2

 Guess for atomic kind: P

 Electronic structure
    Total number of core electrons                                         10.00
    Total number of valence electrons                                       5.00
    Total number of electrons                                              15.00
    Multiplicity                                                   not specified
    S   [  2.00  2.00] 2.00
    P   [  6.00] 3.00


 *******************************************************************************
                  Iteration          Convergence                     Energy [au]
 *******************************************************************************
                          1        0.572653                      -6.064250527461
                          2        0.280008                      -6.257223105200
                          3        0.483453E-02                  -6.297142776629
                          4        0.180297E-03                  -6.297154042919
                          5        0.997046E-04                  -6.297154053613
                          6        0.694860E-04                  -6.297154056036
                          7        0.406115E-06                  -6.297154058324

 Energy components [Hartree]           Total Energy ::           -6.297154058324
                                        Band Energy ::           -1.506731195312
                                     Kinetic Energy ::            2.371946416890
                                   Potential Energy ::           -8.669100475214
                                      Virial (-V/T) ::            3.654846675069
                                        Core Energy ::          -10.073066291116
                                          XC Energy ::           -1.458874787557
                                     Coulomb Energy ::            5.234787020350
                       Total Pseudopotential Energy ::          -12.505480874250
                       Local Pseudopotential Energy ::          -13.856216849132
                    Nonlocal Pseudopotential Energy ::            1.350735974882
                                        Confinement ::            0.604681662434

 Orbital energies  State     L     Occupation   Energy[a.u.]          Energy[eV]

                       1     0          2.000      -0.488209          -13.284849

                       1     1          3.000      -0.176771           -4.810181

 Re-scaling the density matrix to get the right number of electrons for spin 2
                  # Electrons              Trace(P)               Scaling factor
                           10                10.000                        1.000


 SCF WAVEFUNCTION OPTIMIZATION

  ----------------------------------- OT ---------------------------------------

  Allowing for rotations:  F
  Optimizing orbital energies:  F
  Minimizer      : DIIS                : direct inversion
                                         in the iterative subspace
                            using      : -   7 DIIS vectors
                                         - safer DIIS on
  Preconditioner : FULL_ALL            : diagonalization, state selective
  Precond_solver : DEFAULT
  stepsize       :    0.15000000
  energy_gap     :    0.20000000

  eps_taylor     :   0.10000E-15
  max_taylor     :             4

  mixed_precision    : F

  ----------------------------------- OT ---------------------------------------

  Step     Update method      Time    Convergence         Total energy    Change
  ------------------------------------------------------------------------------

  Trace(PS):                                   20.0000000000
  Electronic density on regular grids:        -20.0000000000       -0.0000000000
  Core density on regular grids:               19.9999999973       -0.0000000027
  Hard and soft densities (Lebedev):           -0.0000000000       -0.0000000000
  Total Rho_soft + Rho1_hard - Rho1_soft      -20.0000000000
  Total charge density (r-space):              -0.0000000027
  Total Rho_soft + Rho0_soft (g-space):        -0.0000000027

  Decoupling Energy:                                               0.0002259229
     1 OT DIIS     0.15E+00   28.9     0.09873595       -24.8010351047 -2.48E+01

  Trace(PS):                                   20.0000000000
  Electronic density on regular grids:        -20.0000000000        0.0000000000
  Core density on regular grids:               19.9999999973       -0.0000000027
  Hard and soft densities (Lebedev):           -0.0000000000       -0.0000000000
  Total Rho_soft + Rho1_hard - Rho1_soft      -20.0000000000
  Total charge density (r-space):              -0.0000000027
  Total Rho_soft + Rho0_soft (g-space):        -0.0000000027

  Decoupling Energy:                                               0.0000126760
     2 OT DIIS     0.15E+00   35.3     0.04393338       -25.6728557109 -8.72E-01

  Trace(PS):                                   20.0000000000
  Electronic density on regular grids:        -20.0000000000        0.0000000000
  Core density on regular grids:               19.9999999973       -0.0000000027
  Hard and soft densities (Lebedev):           -0.0000000000       -0.0000000000
  Total Rho_soft + Rho1_hard - Rho1_soft      -20.0000000000
  Total charge density (r-space):              -0.0000000027
  Total Rho_soft + Rho0_soft (g-space):        -0.0000000027

  Decoupling Energy:                                               0.0000111028
     3 OT DIIS     0.15E+00   35.3     0.03286640       -25.8864369627 -2.14E-01

  Trace(PS):                                   20.0000000000
  Electronic density on regular grids:        -20.0000000000        0.0000000000
  Core density on regular grids:               19.9999999973       -0.0000000027
  Hard and soft densities (Lebedev):           -0.0000000000       -0.0000000000
  Total Rho_soft + Rho1_hard - Rho1_soft      -20.0000000000
  Total charge density (r-space):              -0.0000000027
  Total Rho_soft + Rho0_soft (g-space):        -0.0000000027

  Decoupling Energy:                                               0.0000030179
     4 OT DIIS     0.15E+00   35.2     0.02559186       -26.0989984487 -2.13E-01

  Trace(PS):                                   20.0000000000
  Electronic density on regular grids:        -20.0000000000        0.0000000000
  Core density on regular grids:               19.9999999973       -0.0000000027
  Hard and soft densities (Lebedev):           -0.0000000000       -0.0000000000
  Total Rho_soft + Rho1_hard - Rho1_soft      -20.0000000000
  Total charge density (r-space):              -0.0000000027
  Total Rho_soft + Rho0_soft (g-space):        -0.0000000027

  Decoupling Energy:                                               0.0000019001
     5 OT DIIS     0.15E+00   35.2     0.02062191       -26.2030557936 -1.04E-01

  Trace(PS):                                   20.0000000000
  Electronic density on regular grids:        -20.0000000000        0.0000000000
  Core density on regular grids:               19.9999999973       -0.0000000027
  Hard and soft densities (Lebedev):           -0.0000000000       -0.0000000000
  Total Rho_soft + Rho1_hard - Rho1_soft      -20.0000000000
  Total charge density (r-space):              -0.0000000027
  Total Rho_soft + Rho0_soft (g-space):        -0.0000000027

  Decoupling Energy:                                               0.0000034707
     6 OT DIIS     0.15E+00   35.1     0.00931832       -26.3186279715 -1.16E-01

  Trace(PS):                                   20.0000000000
  Electronic density on regular grids:        -20.0000000000        0.0000000000
  Core density on regular grids:               19.9999999973       -0.0000000027
  Hard and soft densities (Lebedev):           -0.0000000000       -0.0000000000
  Total Rho_soft + Rho1_hard - Rho1_soft      -20.0000000000
  Total charge density (r-space):              -0.0000000027
  Total Rho_soft + Rho0_soft (g-space):        -0.0000000027

  Decoupling Energy:                                               0.0000004006
     7 OT DIIS     0.15E+00   35.1     0.00671666       -26.3220050559 -3.38E-03

  Trace(PS):                                   20.0000000000
  Electronic density on regular grids:        -20.0000000000        0.0000000000
  Core density on regular grids:               19.9999999973       -0.0000000027
  Hard and soft densities (Lebedev):           -0.0000000000       -0.0000000000
  Total Rho_soft + Rho1_hard - Rho1_soft      -20.0000000000
  Total charge density (r-space):              -0.0000000027
  Total Rho_soft + Rho0_soft (g-space):        -0.0000000027

  Decoupling Energy:                                               0.0000000474
     8 OT DIIS     0.15E+00   35.4     0.00349030       -26.3307829562 -8.78E-03

  Trace(PS):                                   20.0000000000
  Electronic density on regular grids:        -20.0000000000        0.0000000000
  Core density on regular grids:               19.9999999973       -0.0000000027
  Hard and soft densities (Lebedev):           -0.0000000000       -0.0000000000
  Total Rho_soft + Rho1_hard - Rho1_soft      -20.0000000000
  Total charge density (r-space):              -0.0000000027
  Total Rho_soft + Rho0_soft (g-space):        -0.0000000027

  Decoupling Energy:                                               0.0000000142
     9 OT DIIS     0.15E+00   35.1     0.00149429       -26.3341703207 -3.39E-03

  Trace(PS):                                   20.0000000000
  Electronic density on regular grids:        -20.0000000000        0.0000000000
  Core density on regular grids:               19.9999999973       -0.0000000027
  Hard and soft densities (Lebedev):           -0.0000000000       -0.0000000000
  Total Rho_soft + Rho1_hard - Rho1_soft      -20.0000000000
  Total charge density (r-space):              -0.0000000027
  Total Rho_soft + Rho0_soft (g-space):        -0.0000000027

  Decoupling Energy:                                               0.0000000062
    10 OT DIIS     0.15E+00   35.3     0.00075725       -26.3348093541 -6.39E-04

  Trace(PS):                                   20.0000000000
  Electronic density on regular grids:        -20.0000000000        0.0000000000
  Core density on regular grids:               19.9999999973       -0.0000000027
  Hard and soft densities (Lebedev):           -0.0000000000       -0.0000000000
  Total Rho_soft + Rho1_hard - Rho1_soft      -20.0000000000
  Total charge density (r-space):              -0.0000000027
  Total Rho_soft + Rho0_soft (g-space):        -0.0000000027

  Decoupling Energy:                                               0.0000000016
    11 OT DIIS     0.15E+00   35.3     0.00040603       -26.3349789580 -1.70E-04

  Trace(PS):                                   20.0000000000
  Electronic density on regular grids:        -20.0000000000        0.0000000000
  Core density on regular grids:               19.9999999973       -0.0000000027
  Hard and soft densities (Lebedev):           -0.0000000000       -0.0000000000
  Total Rho_soft + Rho1_hard - Rho1_soft      -20.0000000000
  Total charge density (r-space):              -0.0000000027
  Total Rho_soft + Rho0_soft (g-space):        -0.0000000027

  Decoupling Energy:                                               0.0000000007
    12 OT DIIS     0.15E+00   35.2     0.00023358       -26.3350195246 -4.06E-05

  Trace(PS):                                   20.0000000000
  Electronic density on regular grids:        -20.0000000000        0.0000000000
  Core density on regular grids:               19.9999999973       -0.0000000027
  Hard and soft densities (Lebedev):           -0.0000000000       -0.0000000000
  Total Rho_soft + Rho1_hard - Rho1_soft      -20.0000000000
  Total charge density (r-space):              -0.0000000027
  Total Rho_soft + Rho0_soft (g-space):        -0.0000000027

  Decoupling Energy:                                               0.0000000001
    13 OT DIIS     0.15E+00   35.3     0.00013279       -26.3350358337 -1.63E-05

  Trace(PS):                                   20.0000000000
  Electronic density on regular grids:        -20.0000000000        0.0000000000
  Core density on regular grids:               19.9999999973       -0.0000000027
  Hard and soft densities (Lebedev):           -0.0000000000       -0.0000000000
  Total Rho_soft + Rho1_hard - Rho1_soft      -20.0000000000
  Total charge density (r-space):              -0.0000000027
  Total Rho_soft + Rho0_soft (g-space):        -0.0000000027

  Decoupling Energy:                                               0.0000000000
    14 OT DIIS     0.15E+00   35.1     0.00007612       -26.3350414494 -5.62E-06

  Trace(PS):                                   20.0000000000
  Electronic density on regular grids:        -20.0000000000        0.0000000000
  Core density on regular grids:               19.9999999973       -0.0000000027
  Hard and soft densities (Lebedev):           -0.0000000000       -0.0000000000
  Total Rho_soft + Rho1_hard - Rho1_soft      -20.0000000000
  Total charge density (r-space):              -0.0000000027
  Total Rho_soft + Rho0_soft (g-space):        -0.0000000027

  Decoupling Energy:                                               0.0000000000
    15 OT DIIS     0.15E+00   35.2     0.00004321       -26.3350434292 -1.98E-06

  Trace(PS):                                   20.0000000000
  Electronic density on regular grids:        -20.0000000000        0.0000000000
  Core density on regular grids:               19.9999999973       -0.0000000027
  Hard and soft densities (Lebedev):           -0.0000000000       -0.0000000000
  Total Rho_soft + Rho1_hard - Rho1_soft      -20.0000000000
  Total charge density (r-space):              -0.0000000027
  Total Rho_soft + Rho0_soft (g-space):        -0.0000000027

  Decoupling Energy:                                               0.0000000000
    16 OT DIIS     0.15E+00   35.1     0.00002819       -26.3350439919 -5.63E-07

  Trace(PS):                                   20.0000000000
  Electronic density on regular grids:        -20.0000000000        0.0000000000
  Core density on regular grids:               19.9999999973       -0.0000000027
  Hard and soft densities (Lebedev):           -0.0000000000       -0.0000000000
  Total Rho_soft + Rho1_hard - Rho1_soft      -20.0000000000
  Total charge density (r-space):              -0.0000000027
  Total Rho_soft + Rho0_soft (g-space):        -0.0000000027

  Decoupling Energy:                                              -0.0000000000
    17 OT DIIS     0.15E+00   35.2     0.00001589       -26.3350442907 -2.99E-07

  Trace(PS):                                   20.0000000000
  Electronic density on regular grids:        -20.0000000000        0.0000000000
  Core density on regular grids:               19.9999999973       -0.0000000027
  Hard and soft densities (Lebedev):           -0.0000000000       -0.0000000000
  Total Rho_soft + Rho1_hard - Rho1_soft      -20.0000000000
  Total charge density (r-space):              -0.0000000027
  Total Rho_soft + Rho0_soft (g-space):        -0.0000000027

  Decoupling Energy:                                              -0.0000000000
    18 OT DIIS     0.15E+00   35.1     0.00000921       -26.3350443845 -9.38E-08

  Trace(PS):                                   20.0000000000
  Electronic density on regular grids:        -20.0000000000        0.0000000000
  Core density on regular grids:               19.9999999973       -0.0000000027
  Hard and soft densities (Lebedev):           -0.0000000000       -0.0000000000
  Total Rho_soft + Rho1_hard - Rho1_soft      -20.0000000000
  Total charge density (r-space):              -0.0000000027
  Total Rho_soft + Rho0_soft (g-space):        -0.0000000027

  Decoupling Energy:                                              -0.0000000000
    19 OT DIIS     0.15E+00   35.3     0.00000619       -26.3350444131 -2.86E-08

  Trace(PS):                                   20.0000000000
  Electronic density on regular grids:        -20.0000000000        0.0000000000
  Core density on regular grids:               19.9999999973       -0.0000000027
  Hard and soft densities (Lebedev):           -0.0000000000       -0.0000000000
  Total Rho_soft + Rho1_hard - Rho1_soft      -20.0000000000
  Total charge density (r-space):              -0.0000000027
  Total Rho_soft + Rho0_soft (g-space):        -0.0000000027

  Decoupling Energy:                                              -0.0000000000
    20 OT DIIS     0.15E+00   35.0     0.00000410       -26.3350444276 -1.45E-08

  Trace(PS):                                   20.0000000000
  Electronic density on regular grids:        -20.0000000000        0.0000000000
  Core density on regular grids:               19.9999999973       -0.0000000027
  Hard and soft densities (Lebedev):           -0.0000000000       -0.0000000000
  Total Rho_soft + Rho1_hard - Rho1_soft      -20.0000000000
  Total charge density (r-space):              -0.0000000027
  Total Rho_soft + Rho0_soft (g-space):        -0.0000000027

  Decoupling Energy:                                              -0.0000000000
    21 OT DIIS     0.15E+00   35.2     0.00000287       -26.3350444339 -6.25E-09

  Trace(PS):                                   20.0000000000
  Electronic density on regular grids:        -20.0000000000        0.0000000000
  Core density on regular grids:               19.9999999973       -0.0000000027
  Hard and soft densities (Lebedev):           -0.0000000000       -0.0000000000
  Total Rho_soft + Rho1_hard - Rho1_soft      -20.0000000000
  Total charge density (r-space):              -0.0000000027
  Total Rho_soft + Rho0_soft (g-space):        -0.0000000027

  Decoupling Energy:                                              -0.0000000000
    22 OT DIIS     0.15E+00   35.3     0.00000187       -26.3350444375 -3.59E-09

  Trace(PS):                                   20.0000000000
  Electronic density on regular grids:        -20.0000000000        0.0000000000
  Core density on regular grids:               19.9999999973       -0.0000000027
  Hard and soft densities (Lebedev):           -0.0000000000       -0.0000000000
  Total Rho_soft + Rho1_hard - Rho1_soft      -20.0000000000
  Total charge density (r-space):              -0.0000000027
  Total Rho_soft + Rho0_soft (g-space):        -0.0000000027

  Decoupling Energy:                                              -0.0000000000
    23 OT DIIS     0.15E+00   35.1     0.00000119       -26.3350444390 -1.54E-09

  Trace(PS):                                   20.0000000000
  Electronic density on regular grids:        -20.0000000000        0.0000000000
  Core density on regular grids:               19.9999999973       -0.0000000027
  Hard and soft densities (Lebedev):           -0.0000000000       -0.0000000000
  Total Rho_soft + Rho1_hard - Rho1_soft      -20.0000000000
  Total charge density (r-space):              -0.0000000027
  Total Rho_soft + Rho0_soft (g-space):        -0.0000000027

  Decoupling Energy:                                              -0.0000000000
    24 OT DIIS     0.15E+00   35.2     0.00000081       -26.3350444395 -5.25E-10

  Trace(PS):                                   20.0000000000
  Electronic density on regular grids:        -20.0000000000        0.0000000000
  Core density on regular grids:               19.9999999973       -0.0000000027
  Hard and soft densities (Lebedev):           -0.0000000000       -0.0000000000
  Total Rho_soft + Rho1_hard - Rho1_soft      -20.0000000000
  Total charge density (r-space):              -0.0000000027
  Total Rho_soft + Rho0_soft (g-space):        -0.0000000027

  Decoupling Energy:                                              -0.0000000000
    25 OT DIIS     0.15E+00   35.1     0.00000055       -26.3350444398 -2.28E-10

  Trace(PS):                                   20.0000000000
  Electronic density on regular grids:        -20.0000000000        0.0000000000
  Core density on regular grids:               19.9999999973       -0.0000000027
  Hard and soft densities (Lebedev):           -0.0000000000       -0.0000000000
  Total Rho_soft + Rho1_hard - Rho1_soft      -20.0000000000
  Total charge density (r-space):              -0.0000000027
  Total Rho_soft + Rho0_soft (g-space):        -0.0000000027

  Decoupling Energy:                                              -0.0000000000
    26 OT DIIS     0.15E+00   35.3     0.00000034       -26.3350444399 -1.09E-10

  Trace(PS):                                   20.0000000000
  Electronic density on regular grids:        -20.0000000000        0.0000000000
  Core density on regular grids:               19.9999999973       -0.0000000027
  Hard and soft densities (Lebedev):           -0.0000000000       -0.0000000000
  Total Rho_soft + Rho1_hard - Rho1_soft      -20.0000000000
  Total charge density (r-space):              -0.0000000027
  Total Rho_soft + Rho0_soft (g-space):        -0.0000000027

  Decoupling Energy:                                              -0.0000000000
    27 OT DIIS     0.15E+00   35.2     0.00000021       -26.3350444399 -4.10E-11

  Trace(PS):                                   20.0000000000
  Electronic density on regular grids:        -20.0000000000        0.0000000000
  Core density on regular grids:               19.9999999973       -0.0000000027
  Hard and soft densities (Lebedev):           -0.0000000000       -0.0000000000
  Total Rho_soft + Rho1_hard - Rho1_soft      -20.0000000000
  Total charge density (r-space):              -0.0000000027
  Total Rho_soft + Rho0_soft (g-space):        -0.0000000027

  Decoupling Energy:                                              -0.0000000000
    28 OT DIIS     0.15E+00   35.1     0.00000014       -26.3350444399 -1.32E-11

  Trace(PS):                                   20.0000000000
  Electronic density on regular grids:        -20.0000000000        0.0000000000
  Core density on regular grids:               19.9999999973       -0.0000000027
  Hard and soft densities (Lebedev):           -0.0000000000       -0.0000000000
  Total Rho_soft + Rho1_hard - Rho1_soft      -20.0000000000
  Total charge density (r-space):              -0.0000000027
  Total Rho_soft + Rho0_soft (g-space):        -0.0000000027

  Decoupling Energy:                                              -0.0000000000
    29 OT DIIS     0.15E+00   35.2     0.00000009       -26.3350444399 -6.17E-12

  *** SCF run converged in    29 steps ***


  Electronic density on regular grids:        -20.0000000000        0.0000000000
  Core density on regular grids:               19.9999999973       -0.0000000027
  Hard and soft densities (Lebedev):           -0.0000000000       -0.0000000000
  Total Rho_soft + Rho1_hard - Rho1_soft      -20.0000000000
  Total charge density (r-space):              -0.0000000027
  Total Rho_soft + Rho0_soft (g-space):        -0.0000000027

  Overlap energy of the core charge distribution:               0.00000000027994
  Self energy of the core charge distribution:                -65.60343994741353
  Core Hamiltonian energy:                                     14.18764308695726
  Hartree energy:                                              31.70745778076187
  Exchange-correlation energy:                                 -6.62666204266241
  Dispersion energy:                                           -0.00004331785742

  GAPW| Exc from hard and soft atomic rho1:                     0.00000000000000
  GAPW| local Eh = 1 center integrals:                          0.00000000000000

  Total energy:                                               -26.33504443993429

  Integrated absolute spin density  :                               0.0000000000
  Ideal and single determinant S**2 :                    0.000000      -0.000000


 MULLIKEN POPULATION ANALYSIS

 # Atom  Element  Kind  Atomic population (alpha,beta)   Net charge  Spin moment
      1     P        1           2.500000     2.500000     0.000000    -0.000000
      2     P        1           2.500002     2.500002    -0.000003     0.000000
      3     P        1           2.499998     2.499998     0.000005     0.000000
      4     P        1           2.500001     2.500001    -0.000001    -0.000000
 # Total charge and spin        10.000000    10.000000    -0.000000     0.000000


  Trace(PS):                                   20.0000000000
  Electronic density on regular grids:        -20.0000000000        0.0000000000
  Core density on regular grids:               19.9999999973       -0.0000000027
  Hard and soft densities (Lebedev):           -0.0000000000       -0.0000000000
  Total Rho_soft + Rho1_hard - Rho1_soft      -20.0000000000
  Total charge density (r-space):              -0.0000000027
  Total Rho_soft + Rho0_soft (g-space):        -0.0000000027

  Decoupling Energy:                                              -0.0000000000

 ENERGY| Total FORCE_EVAL ( QS ) energy (a.u.):              -26.335044439937228


 --------  Informations at step =     1 ------------
  Optimization Method        =                 BFGS
  Total Energy               =       -26.3350444399
  Used time                  =             1058.500

 --------------------------
 OPTIMIZATION STEP:      2
 --------------------------

 DISTRIBUTION OF THE NEIGHBOR LISTS
              Total number of particle pairs:                                 10
              Total number of matrix elements:                              1690
              Average number of particle pairs:                                2
              Maximum number of particle pairs:                                2
              Average number of matrix element:                              212
              Maximum number of matrix elements:                             338


 DISTRIBUTION OF THE OVERLAP MATRIX
              Number  of non-zero blocks:                                     10
              Percentage non-zero blocks:                                 100.00
              Average number of blocks per CPU:                                2
              Maximum number of blocks per CPU:                                2
              Average number of matrix elements per CPU:                     212
              Maximum number of matrix elements per CPU:                     338

 Spin 1

 Number of electrons:                                                         10
 Number of occupied orbitals:                                                 10
 Number of molecular orbitals:                                                10

 Spin 2

 Number of electrons:                                                         10
 Number of occupied orbitals:                                                 10
 Number of molecular orbitals:                                                10

 Number of orbital functions:                                                 52
 Number of independent orbital functions:                                     52

 Extrapolation method: PS Nth order


 SCF WAVEFUNCTION OPTIMIZATION

  ----------------------------------- OT ---------------------------------------

  Allowing for rotations:  F
  Optimizing orbital energies:  F
  Minimizer      : DIIS                : direct inversion
                                         in the iterative subspace
                            using      : -   7 DIIS vectors
                                         - safer DIIS on
  Preconditioner : FULL_ALL            : diagonalization, state selective
  Precond_solver : DEFAULT
  stepsize       :    0.15000000
  energy_gap     :    0.20000000

  eps_taylor     :   0.10000E-15
  max_taylor     :             4

  mixed_precision    : F

  ----------------------------------- OT ---------------------------------------

  Step     Update method      Time    Convergence         Total energy    Change
  ------------------------------------------------------------------------------

  Trace(PS):                                   20.0000000000
  Electronic density on regular grids:        -20.0000000000        0.0000000000
  Core density on regular grids:               19.9999999973       -0.0000000027
  Hard and soft densities (Lebedev):           -0.0000000000       -0.0000000000
  Total Rho_soft + Rho1_hard - Rho1_soft      -20.0000000000
  Total charge density (r-space):              -0.0000000027
  Total Rho_soft + Rho0_soft (g-space):        -0.0000000027

  Decoupling Energy:                                              -0.0000000000
     1 OT DIIS     0.15E+00   28.6     0.00061610       -26.3349109852 -2.63E+01

  Trace(PS):                                   20.0000000000
  Electronic density on regular grids:        -20.0000000000        0.0000000000
  Core density on regular grids:               19.9999999973       -0.0000000027
  Hard and soft densities (Lebedev):           -0.0000000000       -0.0000000000
  Total Rho_soft + Rho1_hard - Rho1_soft      -20.0000000000
  Total charge density (r-space):              -0.0000000027
  Total Rho_soft + Rho0_soft (g-space):        -0.0000000027

  Decoupling Energy:                                              -0.0000000000
     2 OT DIIS     0.15E+00   35.2     0.00030630       -26.3349537221 -4.27E-05

  Trace(PS):                                   20.0000000000
  Electronic density on regular grids:        -20.0000000000        0.0000000000
  Core density on regular grids:               19.9999999973       -0.0000000027
  Hard and soft densities (Lebedev):           -0.0000000000       -0.0000000000
  Total Rho_soft + Rho1_hard - Rho1_soft      -20.0000000000
  Total charge density (r-space):              -0.0000000027
  Total Rho_soft + Rho0_soft (g-space):        -0.0000000027

  Decoupling Energy:                                              -0.0000000000
     3 OT DIIS     0.15E+00   35.2     0.00015139       -26.3349699361 -1.62E-05

  Trace(PS):                                   20.0000000000
  Electronic density on regular grids:        -20.0000000000        0.0000000000
  Core density on regular grids:               19.9999999973       -0.0000000027
  Hard and soft densities (Lebedev):           -0.0000000000       -0.0000000000
  Total Rho_soft + Rho1_hard - Rho1_soft      -20.0000000000
  Total charge density (r-space):              -0.0000000027
  Total Rho_soft + Rho0_soft (g-space):        -0.0000000027

  Decoupling Energy:                                              -0.0000000000
     4 OT DIIS     0.15E+00   35.1     0.00001272       -26.3349757249 -5.79E-06

  Trace(PS):                                   20.0000000000
  Electronic density on regular grids:        -20.0000000000        0.0000000000
  Core density on regular grids:               19.9999999973       -0.0000000027
  Hard and soft densities (Lebedev):           -0.0000000000       -0.0000000000
  Total Rho_soft + Rho1_hard - Rho1_soft      -20.0000000000
  Total charge density (r-space):              -0.0000000027
  Total Rho_soft + Rho0_soft (g-space):        -0.0000000027

  Decoupling Energy:                                              -0.0000000000
     5 OT DIIS     0.15E+00   34.9     0.00000066       -26.3349757598 -3.50E-08

  Trace(PS):                                   20.0000000000
  Electronic density on regular grids:        -20.0000000000        0.0000000000
  Core density on regular grids:               19.9999999973       -0.0000000027
  Hard and soft densities (Lebedev):           -0.0000000000       -0.0000000000
  Total Rho_soft + Rho1_hard - Rho1_soft      -20.0000000000
  Total charge density (r-space):              -0.0000000027
  Total Rho_soft + Rho0_soft (g-space):        -0.0000000027

  Decoupling Energy:                                              -0.0000000000
     6 OT DIIS     0.15E+00   35.1     0.00000032       -26.3349757599 -5.48E-11

  Trace(PS):                                   20.0000000000
  Electronic density on regular grids:        -20.0000000000        0.0000000000
  Core density on regular grids:               19.9999999973       -0.0000000027
  Hard and soft densities (Lebedev):           -0.0000000000       -0.0000000000
  Total Rho_soft + Rho1_hard - Rho1_soft      -20.0000000000
  Total charge density (r-space):              -0.0000000027
  Total Rho_soft + Rho0_soft (g-space):        -0.0000000027

  Decoupling Energy:                                              -0.0000000000
     7 OT DIIS     0.15E+00   35.3     0.00000009       -26.3349757599 -2.08E-11

  *** SCF run converged in     7 steps ***


  Electronic density on regular grids:        -20.0000000000        0.0000000000
  Core density on regular grids:               19.9999999973       -0.0000000027
  Hard and soft densities (Lebedev):           -0.0000000000       -0.0000000000
  Total Rho_soft + Rho1_hard - Rho1_soft      -20.0000000000
  Total charge density (r-space):              -0.0000000027
  Total Rho_soft + Rho0_soft (g-space):        -0.0000000027

  Overlap energy of the core charge distribution:               0.00000000022023
  Self energy of the core charge distribution:                -65.60343994741353
  Core Hamiltonian energy:                                     14.15120653027503
  Hartree energy:                                              31.73167600781983
  Exchange-correlation energy:                                 -6.61437330167228
  Dispersion energy:                                           -0.00004504912546

  GAPW| Exc from hard and soft atomic rho1:                     0.00000000000000
  GAPW| local Eh = 1 center integrals:                          0.00000000000000

  Total energy:                                               -26.33497575989620

  Integrated absolute spin density  :                               0.0000000000
  Ideal and single determinant S**2 :                    0.000000       0.000000


 MULLIKEN POPULATION ANALYSIS

 # Atom  Element  Kind  Atomic population (alpha,beta)   Net charge  Spin moment
      1     P        1           2.500001     2.500001    -0.000003     0.000000
      2     P        1           2.500003     2.500003    -0.000005     0.000000
      3     P        1           2.499997     2.499997     0.000005     0.000000
      4     P        1           2.499999     2.499999     0.000003    -0.000000
 # Total charge and spin        10.000000    10.000000     0.000000     0.000000


  Trace(PS):                                   20.0000000000
  Electronic density on regular grids:        -20.0000000000        0.0000000000
  Core density on regular grids:               19.9999999973       -0.0000000027
  Hard and soft densities (Lebedev):           -0.0000000000       -0.0000000000
  Total Rho_soft + Rho1_hard - Rho1_soft      -20.0000000000
  Total charge density (r-space):              -0.0000000027
  Total Rho_soft + Rho0_soft (g-space):        -0.0000000027

  Decoupling Energy:                                              -0.0000000000

 ENERGY| Total FORCE_EVAL ( QS ) energy (a.u.):              -26.334975759897198


 --------  Informations at step =     2 ------------
  Optimization Method        =                 BFGS
  Total Energy               =       -26.3349757599
  Real energy change         =         0.0000686800
  Predicted change in energy =        -0.0000312809
  Scaling factor             =         0.0000000000
  Step size                  =         0.0114559257
  Trust radius               =         0.4724315332
  Decrease in energy         =                   NO
  Used time                  =              283.386

  Convergence check :
  Max. step size             =         0.0114559257
  Conv. limit for step size  =         0.0030000000
  Convergence in step size   =                   NO
  RMS step size              =         0.0072204478
  Conv. limit for RMS step   =         0.0015000000
  Convergence in RMS step    =                   NO
  Max. gradient              =         0.0036072935
  Conv. limit for gradients  =         0.0000500000
  Conv. for gradients        =                   NO
  RMS gradient               =         0.0022854853
  Conv. limit for RMS grad.  =         0.0003000000
  Conv. for gradients        =                   NO
 ---------------------------------------------------

 --------------------------
 OPTIMIZATION STEP:      3
 --------------------------

 DISTRIBUTION OF THE NEIGHBOR LISTS
              Total number of particle pairs:                                 10
              Total number of matrix elements:                              1690
              Average number of particle pairs:                                2
              Maximum number of particle pairs:                                2
              Average number of matrix element:                              212
              Maximum number of matrix elements:                             338


 DISTRIBUTION OF THE OVERLAP MATRIX
              Number  of non-zero blocks:                                     10
              Percentage non-zero blocks:                                 100.00
              Average number of blocks per CPU:                                2
              Maximum number of blocks per CPU:                                2
              Average number of matrix elements per CPU:                     212
              Maximum number of matrix elements per CPU:                     338

 Spin 1

 Number of electrons:                                                         10
 Number of occupied orbitals:                                                 10
 Number of molecular orbitals:                                                10

 Spin 2

 Number of electrons:                                                         10
 Number of occupied orbitals:                                                 10
 Number of molecular orbitals:                                                10

 Number of orbital functions:                                                 52
 Number of independent orbital functions:                                     52

 Extrapolation method: PS Nth order


 SCF WAVEFUNCTION OPTIMIZATION

  ----------------------------------- OT ---------------------------------------

  Allowing for rotations:  F
  Optimizing orbital energies:  F
  Minimizer      : DIIS                : direct inversion
                                         in the iterative subspace
                            using      : -   7 DIIS vectors
                                         - safer DIIS on
  Preconditioner : FULL_ALL            : diagonalization, state selective
  Precond_solver : DEFAULT
  stepsize       :    0.15000000
  energy_gap     :    0.20000000

  eps_taylor     :   0.10000E-15
  max_taylor     :             4

  mixed_precision    : F

  ----------------------------------- OT ---------------------------------------

  Step     Update method      Time    Convergence         Total energy    Change
  ------------------------------------------------------------------------------

  Trace(PS):                                   20.0000000000
  Electronic density on regular grids:        -20.0000000000        0.0000000000
  Core density on regular grids:               19.9999999973       -0.0000000027
  Hard and soft densities (Lebedev):           -0.0000000000       -0.0000000000
  Total Rho_soft + Rho1_hard - Rho1_soft      -20.0000000000
  Total charge density (r-space):              -0.0000000027
  Total Rho_soft + Rho0_soft (g-space):        -0.0000000027

  Decoupling Energy:                                              -0.0000000000
     1 OT DIIS     0.15E+00   28.6     0.00108779       -26.3348509350 -2.63E+01

  Trace(PS):                                   20.0000000000
  Electronic density on regular grids:        -20.0000000000        0.0000000000
  Core density on regular grids:               19.9999999973       -0.0000000027
  Hard and soft densities (Lebedev):           -0.0000000000       -0.0000000000
  Total Rho_soft + Rho1_hard - Rho1_soft      -20.0000000000
  Total charge density (r-space):              -0.0000000027
  Total Rho_soft + Rho0_soft (g-space):        -0.0000000027

  Decoupling Energy:                                              -0.0000000000
     2 OT DIIS     0.15E+00   35.0     0.00053799       -26.3349838191 -1.33E-04

  Trace(PS):                                   20.0000000000
  Electronic density on regular grids:        -20.0000000000        0.0000000000
[...]
 *******************************************************************************

                    Reevaluating energy at the minimum

 DISTRIBUTION OF THE NEIGHBOR LISTS
              Total number of particle pairs:                                 10
              Total number of matrix elements:                              1690
              Average number of particle pairs:                                2
              Maximum number of particle pairs:                                2
              Average number of matrix element:                              212
              Maximum number of matrix elements:                             338


 DISTRIBUTION OF THE OVERLAP MATRIX
              Number  of non-zero blocks:                                     10
              Percentage non-zero blocks:                                 100.00
              Average number of blocks per CPU:                                2
              Maximum number of blocks per CPU:                                2
              Average number of matrix elements per CPU:                     212
              Maximum number of matrix elements per CPU:                     338

 Spin 1

 Number of electrons:                                                         10
 Number of occupied orbitals:                                                 10
 Number of molecular orbitals:                                                10

 Spin 2

 Number of electrons:                                                         10
 Number of occupied orbitals:                                                 10
 Number of molecular orbitals:                                                10

 Number of orbital functions:                                                 52
 Number of independent orbital functions:                                     52

 Extrapolation method: PS Nth order


 SCF WAVEFUNCTION OPTIMIZATION

  ----------------------------------- OT ---------------------------------------

  Allowing for rotations:  F
  Optimizing orbital energies:  F
  Minimizer      : DIIS                : direct inversion
                                         in the iterative subspace
                            using      : -   7 DIIS vectors
                                         - safer DIIS on
  Preconditioner : FULL_ALL            : diagonalization, state selective
  Precond_solver : DEFAULT
  stepsize       :    0.15000000
  energy_gap     :    0.20000000

  eps_taylor     :   0.10000E-15
  max_taylor     :             4

  mixed_precision    : F

  ----------------------------------- OT ---------------------------------------

  Step     Update method      Time    Convergence         Total energy    Change
  ------------------------------------------------------------------------------

  Trace(PS):                                   20.0000000000
  Electronic density on regular grids:        -20.0000000000        0.0000000000
  Core density on regular grids:               19.9999999973       -0.0000000027
  Hard and soft densities (Lebedev):           -0.0000000000       -0.0000000000
  Total Rho_soft + Rho1_hard - Rho1_soft      -20.0000000000
  Total charge density (r-space):              -0.0000000027
  Total Rho_soft + Rho0_soft (g-space):        -0.0000000027

  Decoupling Energy:                                              -0.0000000000
     1 OT DIIS     0.15E+00   28.6     0.00202053       -26.3343593667 -2.63E+01

  Trace(PS):                                   20.0000000000
  Electronic density on regular grids:        -20.0000000000        0.0000000000
  Core density on regular grids:               19.9999999973       -0.0000000027
  Hard and soft densities (Lebedev):           -0.0000000000       -0.0000000000
  Total Rho_soft + Rho1_hard - Rho1_soft      -20.0000000000
  Total charge density (r-space):              -0.0000000027
  Total Rho_soft + Rho0_soft (g-space):        -0.0000000027

  Decoupling Energy:                                              -0.0000000000
     2 OT DIIS     0.15E+00   35.3     0.00099833       -26.3348175286 -4.58E-04

  Trace(PS):                                   20.0000000000
  Electronic density on regular grids:        -20.0000000000        0.0000000000
  Core density on regular grids:               19.9999999973       -0.0000000027
  Hard and soft densities (Lebedev):           -0.0000000000       -0.0000000000
  Total Rho_soft + Rho1_hard - Rho1_soft      -20.0000000000
  Total charge density (r-space):              -0.0000000027
  Total Rho_soft + Rho0_soft (g-space):        -0.0000000027

  Decoupling Energy:                                              -0.0000000000
     3 OT DIIS     0.15E+00   35.2     0.00049678       -26.3349891185 -1.72E-04

  Trace(PS):                                   20.0000000000
  Electronic density on regular grids:        -20.0000000000        0.0000000000
  Core density on regular grids:               19.9999999973       -0.0000000027
  Hard and soft densities (Lebedev):           -0.0000000000       -0.0000000000
  Total Rho_soft + Rho1_hard - Rho1_soft      -20.0000000000
  Total charge density (r-space):              -0.0000000027
  Total Rho_soft + Rho0_soft (g-space):        -0.0000000027

  Decoupling Energy:                                              -0.0000000000
     4 OT DIIS     0.15E+00   35.2     0.00004192       -26.3350514423 -6.23E-05

  Trace(PS):                                   20.0000000000
  Electronic density on regular grids:        -20.0000000000        0.0000000000
  Core density on regular grids:               19.9999999973       -0.0000000027
  Hard and soft densities (Lebedev):           -0.0000000000       -0.0000000000
  Total Rho_soft + Rho1_hard - Rho1_soft      -20.0000000000
  Total charge density (r-space):              -0.0000000027
  Total Rho_soft + Rho0_soft (g-space):        -0.0000000027

  Decoupling Energy:                                              -0.0000000000
     5 OT DIIS     0.15E+00   35.2     0.00000388       -26.3350518188 -3.76E-07

  Trace(PS):                                   20.0000000000
  Electronic density on regular grids:        -20.0000000000        0.0000000000
  Core density on regular grids:               19.9999999973       -0.0000000027
  Hard and soft densities (Lebedev):           -0.0000000000       -0.0000000000
  Total Rho_soft + Rho1_hard - Rho1_soft      -20.0000000000
  Total charge density (r-space):              -0.0000000027
  Total Rho_soft + Rho0_soft (g-space):        -0.0000000027

  Decoupling Energy:                                              -0.0000000000
     6 OT DIIS     0.15E+00   35.2     0.00000116       -26.3350518205 -1.79E-09

  Trace(PS):                                   20.0000000000
  Electronic density on regular grids:        -20.0000000000        0.0000000000
  Core density on regular grids:               19.9999999973       -0.0000000027
  Hard and soft densities (Lebedev):           -0.0000000000       -0.0000000000
  Total Rho_soft + Rho1_hard - Rho1_soft      -20.0000000000
  Total charge density (r-space):              -0.0000000027
  Total Rho_soft + Rho0_soft (g-space):        -0.0000000027

  Decoupling Energy:                                              -0.0000000000
     7 OT DIIS     0.15E+00   35.1     0.00000016       -26.3350518208 -2.87E-10

  Trace(PS):                                   20.0000000000
  Electronic density on regular grids:        -20.0000000000        0.0000000000
  Core density on regular grids:               19.9999999973       -0.0000000027
  Hard and soft densities (Lebedev):           -0.0000000000       -0.0000000000
  Total Rho_soft + Rho1_hard - Rho1_soft      -20.0000000000
  Total charge density (r-space):              -0.0000000027
  Total Rho_soft + Rho0_soft (g-space):        -0.0000000027

  Decoupling Energy:                                              -0.0000000000
     8 OT DIIS     0.15E+00   35.3     0.00000011       -26.3350518208 -3.46E-12

  Trace(PS):                                   20.0000000000
  Electronic density on regular grids:        -20.0000000000        0.0000000000
  Core density on regular grids:               19.9999999973       -0.0000000027
  Hard and soft densities (Lebedev):           -0.0000000000       -0.0000000000
  Total Rho_soft + Rho1_hard - Rho1_soft      -20.0000000000
  Total charge density (r-space):              -0.0000000027
  Total Rho_soft + Rho0_soft (g-space):        -0.0000000027

  Decoupling Energy:                                              -0.0000000000
     9 OT DIIS     0.15E+00   35.0     6.7631E-09       -26.3350518208 -2.55E-12

  *** SCF run converged in     9 steps ***


  Electronic density on regular grids:        -20.0000000000        0.0000000000
  Core density on regular grids:               19.9999999973       -0.0000000027
  Hard and soft densities (Lebedev):           -0.0000000000       -0.0000000000
  Total Rho_soft + Rho1_hard - Rho1_soft      -20.0000000000
  Total charge density (r-space):              -0.0000000027
  Total Rho_soft + Rho0_soft (g-space):        -0.0000000027

  Overlap energy of the core charge distribution:               0.00000000026456
  Self energy of the core charge distribution:                -65.60343994741353
  Core Hamiltonian energy:                                     14.17897631413149
  Hartree energy:                                              31.71320433433335
  Exchange-correlation energy:                                 -6.62374880117360
  Dispersion energy:                                           -0.00004372097705

  GAPW| Exc from hard and soft atomic rho1:                     0.00000000000000
  GAPW| local Eh = 1 center integrals:                          0.00000000000000

  Total energy:                                               -26.33505182083477

  Integrated absolute spin density  :                               0.0000000000
  Ideal and single determinant S**2 :                    0.000000      -0.000000


 MULLIKEN POPULATION ANALYSIS

 # Atom  Element  Kind  Atomic population (alpha,beta)   Net charge  Spin moment
      1     P        1           2.500000     2.500000     0.000000     0.000000
      2     P        1           2.500002     2.500002    -0.000004    -0.000000
      3     P        1           2.499998     2.499998     0.000005    -0.000000
      4     P        1           2.500001     2.500001    -0.000002     0.000000
 # Total charge and spin        10.000000    10.000000    -0.000000     0.000000


 ENERGY| Total FORCE_EVAL ( QS ) energy (a.u.):              -26.335051820834771


 -------------------------------------------------------------------------------
 ----                             MULTIGRID INFO                            ----
 -------------------------------------------------------------------------------
 count for grid        1:          10338          cutoff [a.u.]          150.00
 count for grid        2:           7810          cutoff [a.u.]           50.00
 count for grid        3:           9670          cutoff [a.u.]           16.67
 count for grid        4:           3720          cutoff [a.u.]            5.56
 total gridlevel count  :          31538

 -------------------------------------------------------------------------------
 -                                                                             -
 -                         MESSAGE PASSING PERFORMANCE                         -
 -                                                                             -
 -------------------------------------------------------------------------------

 ROUTINE             CALLS  TOT TIME [s]  AVE VOLUME [Bytes]  PERFORMANCE [MB/s]
 MP_Group                5         0.000
 MP_Bcast              217         0.030            1897759.            13727.12
 MP_Allreduce         1720        12.851               1001.                0.13
 MP_Gather              20         0.001                128.                2.56
 MP_Sync                96         0.002
 MP_Alltoall          2570       351.838          112718138.              823.35
 MP_SendRecv           112         0.002                 40.                2.24
 MP_ISendRecv         3668         0.059             557568.            34663.72
 MP_Wait             13613        95.203
 MP_comm_split          92         0.012
 MP_ISend             7956         1.980            4209124.            16913.03
 MP_IRecv             7956         0.030            4209190.          1116277.10
 MP_Recv                45         0.002               1056.               23.76
 -------------------------------------------------------------------------------


 -------------------------------------------------------------------------------
 -                                                                             -
 -                           R E F E R E N C E S                               -
 -                                                                             -
 -------------------------------------------------------------------------------
 
 CP2K version 2.4 (Development Version), the CP2K developers group (2013).
 CP2K is freely available from http://www.cp2k.org/ .

 Grimme, S; Antony, J; Ehrlich, S; Krieg, H. 
 JOURNAL OF CHEMICAL PHYSICS, 132 (15), 154104 (2010). 
 A consistent and accurate ab initio parametrization of density
 functional dispersion correction (DFT-D) for the 94 elements H-Pu.
 http://dx.doi.org/10.1063/1.3382344


 VandeVondele, J; Hutter, J. 
 JOURNAL OF CHEMICAL PHYSICS, 127 (11), 114105 (2007). 
 Gaussian basis sets for accurate calculations on molecular systems in
 gas and condensed phases.
 http://dx.doi.org/10.1063/1.2770708


 Krack, M. 
 THEORETICAL CHEMISTRY ACCOUNTS, 114 (1-3), 145-152 (2005). 
 Pseudopotentials for H to Kr optimized for gradient-corrected
 exchange-correlation functionals.
 http://dx.doi.org/10.1007/s00214-005-0655-y


 VandeVondele, J; Krack, M; Mohamed, F; Parrinello, M; Chassaing, T;
 Hutter, J. COMPUTER PHYSICS COMMUNICATIONS, 167 (2), 103-128 (2005). 
 QUICKSTEP: Fast and accurate density functional calculations using a
 mixed Gaussian and plane waves approach.
 http://dx.doi.org/10.1016/j.cpc.2004.12.014


 Frigo, M; Johnson, SG. 
 PROCEEDINGS OF THE IEEE, 93 (2), 216-231 (2005). 
 The design and implementation of FFTW3.
 http://dx.doi.org/10.1109/JPROC.2004.840301


 VandeVondele, J; Hutter, J. 
 JOURNAL OF CHEMICAL PHYSICS, 118 (10), 4365-4369 (2003). 
 An efficient orbital transformation method for electronic structure
 calculations.
 http://dx.doi.org/10.1063/1.1543154


 Lippert, G; Hutter, J; Parrinello, M. 
 THEORETICAL CHEMISTRY ACCOUNTS, 103 (2), 124-140 (1999). 
 The Gaussian and augmented-plane-wave density functional method for ab
 initio molecular dynamics simulations.
 http://dx.doi.org/10.1007/s002140050523


 Krack, M; Parrinello, M. 
 PHYSICAL CHEMISTRY CHEMICAL PHYSICS, 2 (10), 2105-2112 (2000). 
 All-electron ab-initio molecular dynamics.
 http://dx.doi.org/10.1039/b001167n


 Hartwigsen, C; Goedecker, S; Hutter, J. 
 PHYSICAL REVIEW B, 58 (7), 3641-3662 (1998). 
 Relativistic separable dual-space Gaussian pseudopotentials from H to Rn.
 http://dx.doi.org/10.1103/PhysRevB.58.3641


 Perdew, JP; Burke, K; Ernzerhof, M. 
 PHYSICAL REVIEW LETTERS, 77 (18), 3865-3868 (1996). 
 Generalized gradient approximation made simple.
 http://dx.doi.org/10.1103/PhysRevLett.77.3865


 Goedecker, S; Teter, M; Hutter, J. 
 PHYSICAL REVIEW B, 54 (3), 1703-1710 (1996). 
 Separable dual-space Gaussian pseudopotentials.
 http://dx.doi.org/10.1103/PhysRevB.54.1703


 BLOCHL, PE. 
 JOURNAL OF CHEMICAL PHYSICS, 103 (17), 7422-7428 (1995). 
 ELECTROSTATIC DECOUPLING OF PERIODIC IMAGES OF PLANE-WAVE-EXPANDED
 DENSITIES AND DERIVED ATOMIC POINT CHARGES.
 http://dx.doi.org/10.1063/1.470314


 -------------------------------------------------------------------------------
 -                                                                             -
 -                                T I M I N G                                  -
 -                                                                             -
 -------------------------------------------------------------------------------
 SUBROUTINE                       CALLS  ASD         SELF TIME        TOTAL TIME
                                              AVERAGE  MAXIMUM  AVERAGE  MAXIMUM
 CP2K                                 1  1.0    0.176    0.189 2308.480 2308.493
 geoopt_bfgs                          1  3.0    0.002    0.002 2305.268 2305.268
 cp_geo_opt                           1  2.0    0.000    0.000 2305.268 2305.268
 cp_eval_at                           5  4.0    0.003    0.004 2305.239 2305.240
 qs_energies_scf                      5  5.8    0.000    0.001 2190.936 2190.936
 scf_env_do_scf                       5  6.8    0.003    0.004 2147.302 2147.302
 scf_env_do_scf_inner_loop           61  7.9    0.028    0.030 2005.218 2005.220
 qs_forces                            4  5.0    0.002    0.003 1979.693 1979.693
 qs_ks_build_kohn_sham_matrix        65  9.7    1.364    2.425 1835.419 1835.422
 fft_wrap_pw1pw2                   2225 12.8    0.121    0.145 1788.096 1813.453
 fft_wrap_pw1pw2_150               1439 13.8  111.009  112.317 1715.709 1742.636
 qs_ks_update_qs_env                 66  8.8    0.002    0.003 1721.173 1721.176
 fft3d_ps                          2225 14.8  808.553  811.018 1371.997 1399.378
 qs_vxc_create                       65 10.7    0.002    0.003 1289.651 1289.653
 xc_vxc_pw_create                    65 11.7   23.638   26.932 1289.650 1289.650
 xc_rho_set_and_dset_create          65 12.7   11.339   11.510  567.846  617.663
 qs_rho_update_rho                   66  8.9    0.003    0.005  440.770  440.771
 calculate_rho_elec                 132  9.9    5.972    7.341  440.761  440.763
 density_rs2pw                      132 10.9    0.015    0.023  428.739  430.661
 yz_to_x                           1118 15.4  281.277  305.139  281.277  305.139
 x_to_yz                           1107 16.2  282.148  285.089  282.148  285.089
 sum_up_and_integrate                65 10.7    9.017    9.191  282.646  282.687
 integrate_v_rspace                 130 11.7    0.718    0.784  273.628  273.838
 potential_pw2rs                    130 12.7    0.593    0.617  272.785  272.952
 rs_pw_transfer                    1187 12.7    0.059    0.075  206.038  206.386
 pw_scatter_p                      1107 15.2  156.310  157.669  156.310  157.669
 pw_gather_p                       1118 14.4  142.789  144.202  142.789  144.202
 init_scf_loop                        5  7.8    0.001    0.002  142.073  142.074
 qs_ks_update_qs_env_forces           4  6.0    0.000    0.001  114.263  114.263
 prepare_gapw_den                    65 10.7    0.008    0.009  106.261  106.898
 put_rho0_on_grid                    65 11.7    2.318    2.637  106.253  106.889
 qs_ks_ddapc                         65 10.7    0.001    0.003   88.796   89.981
 xc_functional_eval                  65 13.7    0.007    0.009   38.963   88.721
 pbe_lsd_eval                        65 14.7   38.957   88.714   38.957   88.714
 rs_pw_transfer_PW2RS_150           199 13.9   76.282   76.667   82.008   82.450
 rs_pw_transfer_RS2PW_150           202 13.1   75.702   76.592   75.702   76.592
 pw_derive                          780 13.2   70.463   71.725   70.463   71.725
 fft_wrap_pw1pw2_50                 262 13.8    4.923    5.118   60.637   63.071
 -------------------------------------------------------------------------------

  **** **** ******  **  PROGRAM ENDED AT                 2013-08-07 01:05:57.139
 ***** ** ***  *** **   PROGRAM RAN ON                                        n1
 **    ****   ******    PROGRAM RAN BY                                       spf
 ***** **    ** ** **   PROGRAM PROCESS ID                                 10492
  **** **  *******  **  PROGRAM STOPPED IN                     /mnt/CalcC/spf/P4
