      14
 i =        2, E =      -186.7994037313
  O        12.4622379862       14.2848937698       12.7655313270
  O        13.2215177742       11.7740679775       12.8626497143
  P        13.9035376771       14.9940077802       12.0540765370
  P        14.8294377853       11.9321570445       12.1726492959
  O        15.4347286190       10.8014492644       11.3891810989
  O        14.5757374576       13.4994631351       11.4204741614
  P        12.2523700000       12.8899959785       13.8123064306
  O        10.8815301936       12.4947133371       14.2853420449
  O        13.5039262143       13.3135298692       14.9699665360
  O        14.8579061849       15.0386843823       13.5282169821
  O        15.6175645246       12.5282108561       13.6250632329
  O        13.7981923861       16.2122164121       11.1805572454
  P        15.1740860521       13.8093073732       14.7422948686
  O        16.0434826933       14.1189824555       15.9286250416
      14
 i =        3, E =      -186.9106096922
  O        12.4419384554       14.2959674402       12.7599344529
  O        13.2108629332       11.7530893867       12.8583340462
  P        13.9134474462       14.8775033305       12.1381534866
  P        14.7712740744       12.0406923298       12.2479143326
  O        15.3677602833       10.9264632542       11.4755282261
  O        14.5822705911       13.5008536632       11.3977417907
  P        12.3837390894       12.9279171289       13.7670984994
  O        11.0327728778       12.5381066111       14.2329738873
  O        13.4971797991       13.3122256713       14.9928480524
  O        14.8685516884       15.0598494556       13.5325133984
  O        15.6376858795       12.5169247287       13.6308445862
  O        13.8101246868       16.0776159888       11.2764246388
  P        15.0906929432       13.7798900990       14.6286614050
  O        15.9476463490       14.0847462269       15.7977158251
      14
 i =        4, E =      -186.9381980089
  O        12.4805160980       14.2746850168       12.7705099887
  O        13.2307790214       11.7926034167       12.8665094152
  P        13.9179816866       14.8253252170       12.1755914284
  P        14.7451088210       12.0891740749       12.2814804451
  O        15.3277418282       11.0011037071       11.5267697197
  O        14.5690196978       13.4985683184       11.4409293641
  P        12.4426147018       12.9448397285       13.7467947838
  O        11.1234013368       12.5636319342       14.2019165769
  O        13.5101592585       13.3145102920       14.9498407021
  O        14.8483726915       15.0202669077       13.5245607981
  O        15.5989443653       12.5382038893       13.6205284738
  O        13.8173226103       15.9976073741       11.3338647209
  P        15.0532439509       13.7666833600       14.5779749838
  O        15.8902156064       14.0642351003       15.7197806525
      14
 i =        5, E =      -186.9432133323
  O        12.5098623524       14.2580793758       12.7784745858
  O        13.2461722317       11.8233467771       12.8726580939
  P        13.9178371683       14.8257619252       12.1754556573
  P        14.7454255038       12.0889172656       12.2812046438
  O        15.3250557659       11.0068678963       11.5303849030
  O        14.5587775813       13.4969470136       11.4741153093
  P        12.4418621011       12.9446192902       13.7471703491
  O        11.1297517135       12.5651524124       14.1997910029
  O        13.5201446470       13.3161997757       14.9167809985
  O        14.8330902958       14.9898980269       13.5184103216
  O        15.5695773728       12.5545807412       13.6125572861
  O        13.8180856634       15.9914321261       11.3377169824
  P        15.0534274936       13.7667411300       14.5783624912
  O        15.8862987538       14.0625452679       15.7138196377
      14
 i =        6, E =      -186.9437908795
  O        12.5173642583       14.2540032693       12.7807969101
  O        13.2501912950       11.8312897734       12.8743813659
  P        13.9172491963       14.8292869871       12.1726979274
  P        14.7471221996       12.0855736707       12.2788981409
  O        15.3289646932       11.0002925025       11.5255566370
  O        14.5563438170       13.4965090196       11.4829830572
  P        12.4378627267       12.9434593122       13.7483558415
  O        11.1216209423       12.5625654455       14.2027569855
  O        13.5227651818       13.3167035555       14.9078249989
  O        14.8287255521       14.9816309518       13.5166939328
  O        15.5618833674       12.5589707867       13.6103011588
  O        13.8174586916       15.9987408056       11.3323016486
  P        15.0561428381       13.7675601466       14.5820181657
  O        15.8918564193       14.0643203465       15.7210529299
      14
 i =        7, E =      -186.9438183376
  O        12.5180758611       14.2533220290       12.7807363636
  O        13.2507173243       11.8324168530       12.8743522587
  P        13.9174428158       14.8287202349       12.1734029152
  P        14.7471466904       12.0862570405       12.2792821469
  O        15.3294469619       10.9995383857       11.5249212784
  O        14.5556859918       13.4964730248       11.4837421545
  P        12.4385012632       12.9436627467       13.7483513526
  O        11.1205970248       12.5621346558       14.2031246049
  O        13.5231381025       13.3166176507       14.9071450629
  O        14.8285065190       14.9812157919       13.5166844866
  O        15.5613369804       12.5592074835       13.6102919921
  O        13.8172307139       15.9994159883       11.3316922195
  P        15.0555649477       13.7674037167       14.5810492472
  O        15.8923207158       14.0643929695       15.7215688403
      14
 i =        8, E =      -186.9438189366
  O        12.5176948962       14.2537318864       12.7811015083
  O        13.2505594178       11.8317150006       12.8744569239
  P        13.9171170353       14.8283995902       12.1732158296
  P        14.7466660505       12.0864613327       12.2793099850
  O        15.3296385879       10.9996330766       11.5248621447
  O        14.5563116178       13.4966123209       11.4836218691
  P        12.4389172401       12.9435588137       13.7478924027
  O        11.1207453807       12.5620826991       14.2032176039
  O        13.5229895218       13.3167021821       14.9070378703
  O        14.8283028610       14.9808770598       13.5164837226
  O        15.5614185207       12.5593836896       13.6099430922
  O        13.8171436278       15.9996914403       11.3316437386
  P        15.0556588953       13.7672796230       14.5812863498
  O        15.8927140465       14.0645327321       15.7219826273
      14
 i =        9, E =      -186.9438193605
  O        12.5177632373       14.2534717007       12.7808302995
  O        13.2506751770       11.8320624900       12.8743026751
  P        13.9172912219       14.8285114137       12.1734190074
  P        14.7470019217       12.0864691506       12.2792897325
  O        15.3296692097       10.9995624797       11.5247210323
  O        14.5559047669       13.4965662225       11.4835533706
  P        12.4388090608       12.9435814291       13.7481545943
  O        11.1206112189       12.5619265391       14.2032422866
  O        13.5231231581       13.3165572948       14.9072109527
  O        14.8284566707       14.9812454189       13.5166294424
  O        15.5615623671       12.5592253336       13.6101448678
  O        13.8170088443       15.9996330190       11.3316323093
  P        15.0555500604       13.7673252489       14.5809688651
  O        15.8925620080       14.0644422869       15.7217576244
      14
 i =       10, E =      -186.9438194048
  O        12.5177438400       14.2534480904       12.7808808680
  O        13.2507252973       11.8320279266       12.8742895941
  P        13.9172273311       14.8285195595       12.1733994732
  P        14.7470069109       12.0864889433       12.2792344474
  O        15.3297017213       10.9996492328       11.5246907212
  O        14.5559247873       13.4966119857       11.4835699005
  P        12.4388329135       12.9435138708       13.7481259945
  O        11.1207052992       12.5618593505       14.2032513950
  O        13.5231502962       13.3165346948       14.9071488070
  O        14.8284092798       14.9811877589       13.5166027162
  O        15.5615665241       12.5592759000       13.6100681096
  O        13.8169410408       15.9996164274       11.3316693134
  P        15.0555893349       13.7673157293       14.5809921334
  O        15.8925820314       14.0644461923       15.7217220973
      14
 i =       11, E =      -186.9438194048
  O        12.5177438400       14.2534480904       12.7808808680
  O        13.2507252973       11.8320279266       12.8742895941
  P        13.9172273311       14.8285195595       12.1733994732
  P        14.7470069109       12.0864889433       12.2792344474
  O        15.3297017213       10.9996492328       11.5246907212
  O        14.5559247873       13.4966119857       11.4835699005
  P        12.4388329135       12.9435138708       13.7481259945
  O        11.1207052992       12.5618593505       14.2032513950
  O        13.5231502962       13.3165346948       14.9071488070
  O        14.8284092798       14.9811877589       13.5166027162
  O        15.5615665241       12.5592759000       13.6100681096
  O        13.8169410408       15.9996164274       11.3316693134
  P        15.0555893349       13.7673157293       14.5809921334
  O        15.8925820314       14.0644461923       15.7217220973
