 DBCSR| Multiplication driver                                                SMM
 DBCSR| Multiplication stack size                                           1000
 DBCSR| Multiplication size stacks                                             0
 DBCSR| Use subcommunicators                                                   T
 DBCSR| Use MPI combined types                                                 F
 DBCSR| Use MPI memory allocation                                              T
 DBCSR| Use Communication thread                                               T
 DBCSR| Communication thread load                                            100


  **** **** ******  **  PROGRAM STARTED AT               2013-08-07 01:06:06.188
 ***** ** ***  *** **   PROGRAM STARTED ON                                    n1
 **    ****   ******    PROGRAM STARTED BY                                   spf
 ***** **    ** ** **   PROGRAM PROCESS ID                                 10546
  **** **  *******  **  PROGRAM STARTED IN                  /mnt/CalcC/spf/P4O10

 CP2K| version string:                    CP2K version 2.4 (Development Version)
 CP2K| source code revision number:                                        12836
 CP2K| is freely available from                             http://www.cp2k.org/
 CP2K| Program compiled at                         Mo 15. Apr 13:01:07 CEST 2013
 CP2K| Program compiled on                                                  head
 CP2K| Program compiled for                                     Linux-x86-64-gcc
 CP2K| Input file name                                                 P4O10.inp

 GLOBAL| Force Environment number                                              1
 GLOBAL| Basis set file name                                           BASIS_SET
 GLOBAL| Geminal file name                                         BASIS_GEMINAL
 GLOBAL| Potential file name                                           POTENTIAL
 GLOBAL| MM Potential file name                                     MM_POTENTIAL
 GLOBAL| Coordinate file name                                      __STD_INPUT__
 GLOBAL| Method name                                                        CP2K
 GLOBAL| Project name                                                      P4O10
 GLOBAL| Preferred FFT library                                             FFTW3
 GLOBAL| Run type                                                        GEO_OPT
 GLOBAL| All-to-all communication in single precision                          F
 GLOBAL| FFTs using library dependent lengths                                  F
 GLOBAL| Global print level                                               MEDIUM
 GLOBAL| Total number of message passing processes                             8
 GLOBAL| Number of threads for this process                                    1
 GLOBAL| This output is from process                                           0

 MEMORY| system memory details [Kb]
 MEMORY|                        rank 0           min           max       average
 MEMORY| MemTotal             33018288      33018288      33018288      33018288
 MEMORY| MemFree              31325716      31325716      31325716      31325716
 MEMORY| Buffers                  5816          5816          5816          5816
 MEMORY| Cached                 991144        991144        991144        991144
 MEMORY| Slab                    64888         64888         64888         64888
 MEMORY| SReclaimable            17684         17684         17684         17684
 MEMORY| MemLikelyFree        32340360      32340360      32340360      32340360


 *** Fundamental physical constants (SI units) ***

 *** Literature: B. J. Mohr and B. N. Taylor,
 ***             CODATA recommended values of the fundamental physical
 ***             constants: 2006, Web Version 5.1
 ***             http://physics.nist.gov/constants

 Speed of light in vacuum [m/s]                             2.99792458000000E+08
 Magnetic constant or permeability of vacuum [N/A**2]       1.25663706143592E-06
 Electric constant or permittivity of vacuum [F/m]          8.85418781762039E-12
 Planck constant (h) [J*s]                                  6.62606896000000E-34
 Planck constant (h-bar) [J*s]                              1.05457162825177E-34
 Elementary charge [C]                                      1.60217648700000E-19
 Electron mass [kg]                                         9.10938215000000E-31
 Electron g factor [ ]                                     -2.00231930436220E+00
 Proton mass [kg]                                           1.67262163700000E-27
 Fine-structure constant                                    7.29735253760000E-03
 Rydberg constant [1/m]                                     1.09737315685270E+07
 Avogadro constant [1/mol]                                  6.02214179000000E+23
 Boltzmann constant [J/K]                                   1.38065040000000E-23
 Atomic mass unit [kg]                                      1.66053878200000E-27
 Bohr radius [m]                                            5.29177208590000E-11

 *** Conversion factors ***

 [u] -> [a.u.]                                              1.82288848426455E+03
 [Angstrom] -> [Bohr] = [a.u.]                              1.88972613288564E+00
 [a.u.] = [Bohr] -> [Angstrom]                              5.29177208590000E-01
 [a.u.] -> [s]                                              2.41888432650478E-17
 [a.u.] -> [fs]                                             2.41888432650478E-02
 [a.u.] -> [J]                                              4.35974393937059E-18
 [a.u.] -> [K]                                              3.15774647902944E+05
 [a.u.] -> [kJ/mol]                                         2.62549961709828E+03
 [a.u.] -> [kcal/mol]                                       6.27509468713739E+02
 [a.u.] -> [Pa]                                             2.94210107994716E+13
 [a.u.] -> [bar]                                            2.94210107994716E+08
 [a.u.] -> [atm]                                            2.90362800883016E+08
 [a.u.] -> [eV]                                             2.72113838565563E+01
 [a.u.] -> [Hz]                                             6.57968392072181E+15
 [a.u.] -> [1/cm] (wave numbers)                            2.19474631370540E+05
 [a.u./Bohr**2] -> [1/cm]                                   5.14048714338585E+03
 

 PW_GRID: Information for grid number                                          1
 PW_GRID: Cutoff [a.u.]                                                      4.4
 PW_GRID: spherical cutoff:                                                   NO
 PW_GRID:   Bounds   1              0      49                Points:          50
 PW_GRID:   Bounds   2              0      49                Points:          50
 PW_GRID:   Bounds   3              0      49                Points:          50
 PW_GRID: Volume element (a.u.^3)   1.063         Volume (a.u.^3)    132827.4696
 PW_GRID: Grid span                                                    HALFSPACE

 CELL| Volume [angstrom^3]:                                            19683.000
 CELL| Vector a [angstrom]:      27.000     0.000     0.000    |a| =      27.000
 CELL| Vector b [angstrom]:       0.000    27.000     0.000    |b| =      27.000
 CELL| Vector c [angstrom]:       0.000     0.000    27.000    |c| =      27.000
 CELL| Angle (b,c), alpha [degree]:                                       90.000
 CELL| Angle (a,c), beta  [degree]:                                       90.000
 CELL| Angle (a,b), gamma [degree]:                                       90.000
 CELL| Orthorhombic:                                                         YES

 CELL_REF| Volume [angstrom^3]:                                        19683.000
 CELL_REF| Vector a [angstrom    27.000     0.000     0.000    |a| =      27.000
 CELL_REF| Vector b [angstrom     0.000    27.000     0.000    |b| =      27.000
 CELL_REF| Vector c [angstrom     0.000     0.000    27.000    |c| =      27.000
 CELL_REF| Angle (b,c), alpha [degree]:                                   90.000
 CELL_REF| Angle (a,c), beta  [degree]:                                   90.000
 CELL_REF| Angle (a,b), gamma [degree]:                                   90.000
 CELL_REF| Orthorhombic:                                                     YES

 CELL_TOP| Volume [angstrom^3]:                                        19683.000
 CELL_TOP| Vector a [angstrom    27.000     0.000     0.000    |a| =      27.000
 CELL_TOP| Vector b [angstrom     0.000    27.000     0.000    |b| =      27.000
 CELL_TOP| Vector c [angstrom     0.000     0.000    27.000    |c| =      27.000
 CELL_TOP| Angle (b,c), alpha [degree]:                                   90.000
 CELL_TOP| Angle (a,c), beta  [degree]:                                   90.000
 CELL_TOP| Angle (a,b), gamma [degree]:                                   90.000
 CELL_TOP| Orthorhombic:                                                     YES

 GENERATE|  Preliminary Number of Bonds generated:                             0
 GENERATE|  Achieved consistency in connectivity generation.

 *******************************************************************************
 *******************************************************************************
 **                                                                           **
 **     #####                         ##              ##                      **
 **    ##   ##            ##          ##              ##                      **
 **   ##     ##                       ##            ######                    **
 **   ##     ##  ##   ##  ##   #####  ##  ##   ####   ##    #####    #####    **
 **   ##     ##  ##   ##  ##  ##      ## ##   ##      ##   ##   ##  ##   ##   **
 **   ##  ## ##  ##   ##  ##  ##      ####     ###    ##   ######   ######    **
 **    ##  ###   ##   ##  ##  ##      ## ##      ##   ##   ##       ##        **
 **     #######   #####   ##   #####  ##  ##  ####    ##    #####   ##        **
 **           ##                                                    ##        **
 **                                                                           **
 **                                                ... make the atoms dance   **
 **                                                                           **
 **            Copyright (C) by CP2K Developers Group (2000 - 2013)           **
 **                                                                           **
 *******************************************************************************

 DFT| Spin unrestricted (spin-polarized) Kohn-Sham calculation               UKS
 DFT| Multiplicity                                                             1
 DFT| Number of spin states                                                    2
 DFT| Charge                                                                   0
 DFT| Self-interaction correction (SIC)                                       NO
 DFT| Cutoffs: density                                              1.000000E-10
 DFT|          gradient                                             1.000000E-10
 DFT|          tau                                                  1.000000E-10
 DFT|          cutoff_smoothing_range                               0.000000E+00
 DFT| XC density smoothing                                                  NONE
 DFT| XC derivatives                                                          PW
 FUNCTIONAL| ROUTINE=NEW
 FUNCTIONAL| PBE:
 FUNCTIONAL| J.P.Perdew, K.Burke, M.Ernzerhof, Phys. Rev. Letter, vol. 77, n 18,
 FUNCTIONAL|  pp. 3865-3868, (1996){spin polarized}
 vdW POTENTIAL|                                                   Pair Potential
 vdW POTENTIAL|          Potential Form: S. Grimme et al, JCP 132: 154104 (2010)
 vdW POTENTIAL|          Cutoff Radius [Bohr]:                             22.68
 vdW POTENTIAL|          s6 Scaling Factor:                               1.0000
 vdW POTENTIAL|          sr6 Scaling Factor:                              1.2170
 vdW POTENTIAL|          s8 Scaling Factor:                               0.7220
 vdW POTENTIAL|          Cutoff for CN calculation:                   0.1000E-05

 QS| Method:                                                                GAPW
 QS| Density plane wave grid type                        NON-SPHERICAL FULLSPACE
 QS| Number of grid levels:                                                    4
 QS| Density cutoff [a.u.]:                                                150.0
 QS| Multi grid cutoff [a.u.]: 1) grid level                               150.0
 QS|                           2) grid level                                50.0
 QS|                           3) grid level                                16.7
 QS|                           4) grid level                                 5.6
 QS| Grid level progression factor:                                          3.0
 QS| Relative density cutoff [a.u.]:                                        15.0
 QS| Consistent realspace mapping and integration 
 QS| Interaction thresholds: eps_pgf_orb:                                1.0E-05
 QS|                         eps_filter_matrix:                          0.0E+00
 QS|                         eps_core_charge:                            1.0E-12
 QS|                         eps_rho_gspace:                             1.0E-10
 QS|                         eps_rho_rspace:                             1.0E-10
 QS|                         eps_gvg_rspace:                             1.0E-05
 QS|                         eps_ppl:                                    1.0E-02
 QS|                         eps_ppnl:                                   1.0E-07
 QS| GAPW|                   eps_fit:                                    1.0E-04
 QS| GAPW|                   eps_iso:                                    1.0E-12
 QS| GAPW|                   eps_svd:                                    1.0E-08
 QS| GAPW|                   eps_cpc:                                    1.0E-10
 QS| GAPW|   atom-r-grid: quadrature:                 GC_LOG                        
 QS| GAPW|      atom-s-grid:  max l :                                          4
 QS| GAPW|      max_l_rho0 :                                                   2
 QS| GAPW|      At least one kind is NOT PAW, i.e. it has only soft AO 
 QS| GAPW|      The NOT PAW atoms are treated fully GPW


 ATOMIC KIND INFORMATION

  1. Atomic kind: O                                     Number of atoms:      10

     Orbital Basis Set                                           DZVP-MOLOPT-GTH

       Number of orbital shell sets:                                           1
       Number of orbital shells:                                               5
       Number of primitive Cartesian functions:                                7
       Number of Cartesian basis functions:                                   14
       Number of spherical basis functions:                                   13
       Norm type:                                                              2

       Normalised Cartesian orbitals:

                        Set   Shell   Orbital            Exponent    Coefficient

                          1       1    2s               12.015955      -0.284499
                                                         5.108150      -0.322498
                                                         2.048398       0.148191
                                                         0.832382       0.295475
                                                         0.352316       0.150829
                                                         0.142977       0.015788
                                                         0.046761      -0.000019

                          1       2    3s               12.015955       0.725622
                                                         5.108150       0.644384
                                                         2.048398      -0.157350
                                                         0.832382      -0.853528
                                                         0.352316       0.146068
                                                         0.142977       0.153978
                                                         0.046761       0.000658

                          1       3    3px              12.015955       1.192141
                                                         5.108150       1.354170
                                                         2.048398       0.897267
                                                         0.832382       0.408839
                                                         0.352316       0.116648
                                                         0.142977       0.022184
                                                         0.046761       0.000308
                          1       3    3py              12.015955       1.192141
                                                         5.108150       1.354170
                                                         2.048398       0.897267
                                                         0.832382       0.408839
                                                         0.352316       0.116648
                                                         0.142977       0.022184
                                                         0.046761       0.000308
                          1       3    3pz              12.015955       1.192141
                                                         5.108150       1.354170
                                                         2.048398       0.897267
                                                         0.832382       0.408839
                                                         0.352316       0.116648
                                                         0.142977       0.022184
                                                         0.046761       0.000308

                          1       4    4px              12.015955      -1.062381
                                                         5.108150      -1.285791
                                                         2.048398      -0.727000
                                                         0.832382      -0.522764
                                                         0.352316       0.182681
                                                         0.142977       0.087560
                                                         0.046761       0.000981
                          1       4    4py              12.015955      -1.062381
                                                         5.108150      -1.285791
                                                         2.048398      -0.727000
                                                         0.832382      -0.522764
                                                         0.352316       0.182681
                                                         0.142977       0.087560
                                                         0.046761       0.000981
                          1       4    4pz              12.015955      -1.062381
                                                         5.108150      -1.285791
                                                         2.048398      -0.727000
                                                         0.832382      -0.522764
                                                         0.352316       0.182681
                                                         0.142977       0.087560
                                                         0.046761       0.000981

                          1       5    4dx2             12.015955       1.125955
                                                         5.108150       1.160468
                                                         2.048398       0.999335
                                                         0.832382       0.756334
                                                         0.352316       0.048604
                                                         0.142977       0.010378
                                                         0.046761      -0.000027
                          1       5    4dxy             12.015955       1.950212
                                                         5.108150       2.009990
                                                         2.048398       1.730899
                                                         0.832382       1.310009
                                                         0.352316       0.084185
                                                         0.142977       0.017974
                                                         0.046761      -0.000046
                          1       5    4dxz             12.015955       1.950212
                                                         5.108150       2.009990
                                                         2.048398       1.730899
                                                         0.832382       1.310009
                                                         0.352316       0.084185
                                                         0.142977       0.017974
                                                         0.046761      -0.000046
                          1       5    4dy2             12.015955       1.125955
                                                         5.108150       1.160468
                                                         2.048398       0.999335
                                                         0.832382       0.756334
                                                         0.352316       0.048604
                                                         0.142977       0.010378
                                                         0.046761      -0.000027
                          1       5    4dyz             12.015955       1.950212
                                                         5.108150       2.009990
                                                         2.048398       1.730899
                                                         0.832382       1.310009
                                                         0.352316       0.084185
                                                         0.142977       0.017974
                                                         0.046761      -0.000046
                          1       5    4dz2             12.015955       1.125955
                                                         5.108150       1.160468
                                                         2.048398       0.999335
                                                         0.832382       0.756334
                                                         0.352316       0.048604
                                                         0.142977       0.010378
                                                         0.046761      -0.000027

     The atoms of this atomic kind are PAW atoms (GAPW):
       Hard Gaussian function radius:                                      1.512
       Rho0 radius:                                                        1.512
       Maximum GTO radius used for PAW projector construction:            24.566

     GAPW Soft Basis Set                                    DZVP-MOLOPT-GTH_soft

       Number of orbital shell sets:                                           1
       Number of orbital shells:                                               5
       Number of primitive Cartesian functions:                                5
       Number of Cartesian basis functions:                                   14
       Number of spherical basis functions:                                   13
       Norm type:                                                              2

       Normalised Cartesian orbitals:

                        Set   Shell   Orbital            Exponent    Coefficient

                          1       1    2s                2.048398       0.148191
                                                         0.832382       0.295475
                                                         0.352316       0.150829
                                                         0.142977       0.015788
                                                         0.046761      -0.000019

                          1       2    3s                2.048398      -0.157350
                                                         0.832382      -0.853528
                                                         0.352316       0.146068
                                                         0.142977       0.153978
                                                         0.046761       0.000658

                          1       3    3px               2.048398       0.897267
                                                         0.832382       0.408839
                                                         0.352316       0.116648
                                                         0.142977       0.022184
                                                         0.046761       0.000308
                          1       3    3py               2.048398       0.897267
                                                         0.832382       0.408839
                                                         0.352316       0.116648
                                                         0.142977       0.022184
                                                         0.046761       0.000308
                          1       3    3pz               2.048398       0.897267
                                                         0.832382       0.408839
                                                         0.352316       0.116648
                                                         0.142977       0.022184
                                                         0.046761       0.000308

                          1       4    4px               2.048398      -0.727000
                                                         0.832382      -0.522764
                                                         0.352316       0.182681
                                                         0.142977       0.087560
                                                         0.046761       0.000981
                          1       4    4py               2.048398      -0.727000
                                                         0.832382      -0.522764
                                                         0.352316       0.182681
                                                         0.142977       0.087560
                                                         0.046761       0.000981
                          1       4    4pz               2.048398      -0.727000
                                                         0.832382      -0.522764
                                                         0.352316       0.182681
                                                         0.142977       0.087560
                                                         0.046761       0.000981

                          1       5    4dx2              2.048398       0.999335
                                                         0.832382       0.756334
                                                         0.352316       0.048604
                                                         0.142977       0.010378
                                                         0.046761      -0.000027
                          1       5    4dxy              2.048398       1.730899
                                                         0.832382       1.310009
                                                         0.352316       0.084185
                                                         0.142977       0.017974
                                                         0.046761      -0.000046
                          1       5    4dxz              2.048398       1.730899
                                                         0.832382       1.310009
                                                         0.352316       0.084185
                                                         0.142977       0.017974
                                                         0.046761      -0.000046
                          1       5    4dy2              2.048398       0.999335
                                                         0.832382       0.756334
                                                         0.352316       0.048604
                                                         0.142977       0.010378
                                                         0.046761      -0.000027
                          1       5    4dyz              2.048398       1.730899
                                                         0.832382       1.310009
                                                         0.352316       0.084185
                                                         0.142977       0.017974
                                                         0.046761      -0.000046
                          1       5    4dz2              2.048398       0.999335
                                                         0.832382       0.756334
                                                         0.352316       0.048604
                                                         0.142977       0.010378
                                                         0.046761      -0.000027

     Potential information for                                        GTH-PBE-q6

       Description:                       Goedecker-Teter-Hutter pseudopotential
                                           Goedecker et al., PRB 54, 1703 (1996)
                                          Hartwigsen et al., PRB 58, 3641 (1998)
                                                      Krack, TCA 114, 145 (2005)

       Gaussian exponent of the core charge distribution:               8.360253
       Electronic configuration (s p d ...):                               2   4

       Parameters of the local part of the GTH pseudopotential:

                          rloc        C1          C2          C3          C4
                        0.244554  -16.667215    2.487311

       Parameters of the non-local part of the GTH pseudopotential:

                   l      r(l)      h(i,j,l)

                   0    0.220956   18.337458
                   1    0.211332

  2. Atomic kind: P                                     Number of atoms:       4

     Orbital Basis Set                                           DZVP-MOLOPT-GTH

       Number of orbital shell sets:                                           1
       Number of orbital shells:                                               5
       Number of primitive Cartesian functions:                                6
       Number of Cartesian basis functions:                                   14
       Number of spherical basis functions:                                   13
       Norm type:                                                              2

       Normalised Cartesian orbitals:

                        Set   Shell   Orbital            Exponent    Coefficient

                          1       1    2s                3.338153       0.070371
                                                         1.833920      -0.349206
                                                         0.688532      -0.062221
                                                         0.372377       0.229985
                                                         0.166131       0.092364
                                                         0.075778       0.009125

                          1       2    3s                3.338153      -0.201073
                                                         1.833920       0.702194
                                                         0.688532       0.130768
                                                         0.372377      -0.497372
                                                         0.166131       0.102904
                                                         0.075778       0.110045

                          1       3    3px               3.338153      -0.086704
                                                         1.833920      -0.124680
                                                         0.688532       0.120237
                                                         0.372377       0.175425
                                                         0.166131       0.058965
                                                         0.075778       0.011013
                          1       3    3py               3.338153      -0.086704
                                                         1.833920      -0.124680
                                                         0.688532       0.120237
                                                         0.372377       0.175425
                                                         0.166131       0.058965
                                                         0.075778       0.011013
                          1       3    3pz               3.338153      -0.086704
                                                         1.833920      -0.124680
                                                         0.688532       0.120237
                                                         0.372377       0.175425
                                                         0.166131       0.058965
                                                         0.075778       0.011013

                          1       4    4px               3.338153       0.044134
                                                         1.833920       0.416759
                                                         0.688532      -0.362830
                                                         0.372377      -0.135315
                                                         0.166131       0.030855
                                                         0.075778       0.054348
                          1       4    4py               3.338153       0.044134
                                                         1.833920       0.416759
                                                         0.688532      -0.362830
                                                         0.372377      -0.135315
                                                         0.166131       0.030855
                                                         0.075778       0.054348
                          1       4    4pz               3.338153       0.044134
                                                         1.833920       0.416759
                                                         0.688532      -0.362830
                                                         0.372377      -0.135315
                                                         0.166131       0.030855
                                                         0.075778       0.054348

                          1       5    4dx2              3.338153       0.250913
                                                         1.833920       0.524236
                                                         0.688532       0.341345
                                                         0.372377       0.113132
                                                         0.166131       0.017371
                                                         0.075778       0.000431
                          1       5    4dxy              3.338153       0.434593
                                                         1.833920       0.908003
                                                         0.688532       0.591227
                                                         0.372377       0.195951
                                                         0.166131       0.030087
                                                         0.075778       0.000746
                          1       5    4dxz              3.338153       0.434593
                                                         1.833920       0.908003
                                                         0.688532       0.591227
                                                         0.372377       0.195951
                                                         0.166131       0.030087
                                                         0.075778       0.000746
                          1       5    4dy2              3.338153       0.250913
                                                         1.833920       0.524236
                                                         0.688532       0.341345
                                                         0.372377       0.113132
                                                         0.166131       0.017371
                                                         0.075778       0.000431
                          1       5    4dyz              3.338153       0.434593
                                                         1.833920       0.908003
                                                         0.688532       0.591227
                                                         0.372377       0.195951
                                                         0.166131       0.030087
                                                         0.075778       0.000746
                          1       5    4dz2              3.338153       0.250913
                                                         1.833920       0.524236
                                                         0.688532       0.341345
                                                         0.372377       0.113132
                                                         0.166131       0.017371
                                                         0.075778       0.000431

     Potential information for                                        GTH-PBE-q5

       Description:                       Goedecker-Teter-Hutter pseudopotential
                                           Goedecker et al., PRB 54, 1703 (1996)
                                          Hartwigsen et al., PRB 58, 3641 (1998)
                                                      Krack, TCA 114, 145 (2005)

       Gaussian exponent of the core charge distribution:               2.704164
       Electronic configuration (s p d ...):                               2   3

       Parameters of the local part of the GTH pseudopotential:

                          rloc        C1          C2          C3          C4
                        0.430000   -5.875943

       Parameters of the non-local part of the GTH pseudopotential:

                   l      r(l)      h(i,j,l)

                   0    0.396377   11.008862   -3.470356
                                   -3.470356    4.480210
                   1    0.448298    3.056064


 MOLECULE KIND INFORMATION


 All atoms are their own molecule, skipping detailed information


 TOTAL NUMBERS AND MAXIMUM NUMBERS

  Total number of            - Atomic kinds:                                   2
                             - Atoms:                                         14
                             - Shell sets:                                    14
                             - Shells:                                        70
                             - Primitive Cartesian functions:                 94
                             - Cartesian basis functions:                    196
                             - Spherical basis functions:                    182

  Maximum angular momentum of- Orbital basis functions:                        2
                             - Local part of the GTH pseudopotential:          2
                             - Non-local part of the GTH pseudopotential:      2


 MODULE QUICKSTEP:  ATOMIC COORDINATES IN angstrom

  Atom  Kind  Element       X           Y           Z          Z(eff)       Mass

       1     1 O    8   12.310270   14.369720   12.724110      6.00      15.9994
       2     1 O    8   13.142710   11.616670   12.830920      6.00      15.9994
       3     2 P   15   13.922650   14.772280   12.213440      5.00      30.9738
       4     2 P   15   14.719580   12.137450   12.315120      5.00      30.9738
       5     1 O    8   15.344260   10.970240   11.506510      6.00      15.9994
       6     1 O    8   14.627360   13.508350   11.249360      6.00      15.9994
       7     2 P   15   12.502370   12.962380   13.726090      5.00      30.9738
       8     1 O    8   11.087200   12.554520   14.214380      6.00      15.9994
       9     1 O    8   13.452300   13.304570   15.141170      6.00      15.9994
      10     1 O    8   14.936460   15.196170   13.560470      6.00      15.9994
      11     1 O    8   15.769600   12.443470   13.666670      6.00      15.9994
      12     1 O    8   13.813510   16.029760   11.312050      6.00      15.9994
      13     2 P   15   15.015480   13.753000   14.525910      5.00      30.9738
      14     1 O    8   15.912800   14.072760   15.750640      6.00      15.9994




 SCF PARAMETERS         Density guess:                                    ATOMIC
                        --------------------------------------------------------
                        max_scf:                                             200
                        max_scf_history:                                       0
                        max_diis:                                              4
                        --------------------------------------------------------
                        eps_scf:                                        1.00E-07
                        eps_scf_history:                                0.00E+00
                        eps_diis:                                       1.00E-01
                        eps_eigval:                                     1.00E-05
                        --------------------------------------------------------
                        level_shift [a.u.]:                                 0.00
                        --------------------------------------------------------
                        No outer SCF

 PW_GRID: Information for grid number                                          2
 PW_GRID: Grid distributed over                                     8 processors
 PW_GRID: Real space group dimensions                                     8    1
 PW_GRID: the grid is blocked:                                                NO
 PW_GRID: Cutoff [a.u.]                                                    150.0
 PW_GRID: spherical cutoff:                                                   NO
 PW_GRID:   Bounds   1           -144     143                Points:         288
 PW_GRID:   Bounds   2           -144     143                Points:         288
 PW_GRID:   Bounds   3           -144     143                Points:         288
 PW_GRID: Volume element (a.u.^3)  0.5560E-02     Volume (a.u.^3)    132827.4696
 PW_GRID: Grid span                                                    FULLSPACE
 PW_GRID:   Distribution                         Average         Max         Min
 PW_GRID:   G-Vectors                          2985984.0     2985984     2985984
 PW_GRID:   G-Rays                               10368.0       10368       10368
 PW_GRID:   Real Space Points                  2985984.0     2985984     2985984

 PW_GRID: Information for grid number                                          3
 PW_GRID: Grid distributed over                                     8 processors
 PW_GRID: Real space group dimensions                                     8    1
 PW_GRID: the grid is blocked:                                                NO
 PW_GRID: Cutoff [a.u.]                                                     50.0
 PW_GRID: spherical cutoff:                                                   NO
 PW_GRID:   Bounds   1            -90      89                Points:         180
 PW_GRID:   Bounds   2            -90      89                Points:         180
 PW_GRID:   Bounds   3            -90      89                Points:         180
 PW_GRID: Volume element (a.u.^3)  0.2278E-01     Volume (a.u.^3)    132827.4696
 PW_GRID: Grid span                                                    FULLSPACE
 PW_GRID:   Distribution                         Average         Max         Min
 PW_GRID:   G-Vectors                           729000.0      729360      728820
 PW_GRID:   G-Rays                                4050.0        4052        4049
 PW_GRID:   Real Space Points                   729000.0      745200      712800

 PW_GRID: Information for grid number                                          4
 PW_GRID: Grid distributed over                                     8 processors
 PW_GRID: Real space group dimensions                                     8    1
 PW_GRID: the grid is blocked:                                                NO
 PW_GRID: Cutoff [a.u.]                                                     16.7
 PW_GRID: spherical cutoff:                                                   NO
 PW_GRID:   Bounds   1            -48      47                Points:          96
 PW_GRID:   Bounds   2            -48      47                Points:          96
 PW_GRID:   Bounds   3            -48      47                Points:          96
 PW_GRID: Volume element (a.u.^3)  0.1501         Volume (a.u.^3)    132827.4696
 PW_GRID: Grid span                                                    FULLSPACE
 PW_GRID:   Distribution                         Average         Max         Min
 PW_GRID:   G-Vectors                           110592.0      110688      110496
 PW_GRID:   G-Rays                                1152.0        1153        1151
 PW_GRID:   Real Space Points                   110592.0      110592      110592

 PW_GRID: Information for grid number                                          5
 PW_GRID: Grid distributed over                                     8 processors
 PW_GRID: Real space group dimensions                                     8    1
 PW_GRID: the grid is blocked:                                                NO
 PW_GRID: Cutoff [a.u.]                                                      5.6
 PW_GRID: spherical cutoff:                                                   NO
 PW_GRID:   Bounds   1            -30      29                Points:          60
 PW_GRID:   Bounds   2            -30      29                Points:          60
 PW_GRID:   Bounds   3            -30      29                Points:          60
 PW_GRID: Volume element (a.u.^3)  0.6149         Volume (a.u.^3)    132827.4696
 PW_GRID: Grid span                                                    FULLSPACE
 PW_GRID:   Distribution                         Average         Max         Min
 PW_GRID:   G-Vectors                            27000.0       27120       26940
 PW_GRID:   G-Rays                                 450.0         452         449
 PW_GRID:   Real Space Points                    27000.0       28800       25200

 RS_GRID: Information for grid number                                          2
 RS_GRID:   Bounds   1           -144     143                Points:         288
 RS_GRID:   Bounds   2           -144     143                Points:         288
 RS_GRID:   Bounds   3           -144     143                Points:         288
 RS_GRID: Real space distribution over                                  2 groups
 RS_GRID: Real space distribution along direction                              2
 RS_GRID: Border size                                                         19
 RS_GRID: Real space distribution over                                  4 groups
 RS_GRID: Real space distribution along direction                              3
 RS_GRID: Border size                                                         19
 RS_GRID:   Distribution                         Average         Max         Min
 RS_GRID:   Planes                                 182.0         182         182
 RS_GRID:   Distribution                         Average         Max         Min
 RS_GRID:   Planes                                 110.0         110         110

 RS_GRID: Information for grid number                                          3
 RS_GRID:   Bounds   1            -90      89                Points:         180
 RS_GRID:   Bounds   2            -90      89                Points:         180
 RS_GRID:   Bounds   3            -90      89                Points:         180
 RS_GRID: Real space distribution over                                  2 groups
 RS_GRID: Real space distribution along direction                              2
 RS_GRID: Border size                                                         19
 RS_GRID: Real space distribution over                                  4 groups
 RS_GRID: Real space distribution along direction                              3
 RS_GRID: Border size                                                         19
 RS_GRID:   Distribution                         Average         Max         Min
 RS_GRID:   Planes                                 128.0         128         128
 RS_GRID:   Distribution                         Average         Max         Min
 RS_GRID:   Planes                                  83.0          83          83

 RS_GRID: Information for grid number                                          4
 RS_GRID:   Bounds   1            -48      47                Points:          96
 RS_GRID:   Bounds   2            -48      47                Points:          96
 RS_GRID:   Bounds   3            -48      47                Points:          96
 RS_GRID: Real space fully replicated
 RS_GRID: Group size                                                           1

 RS_GRID: Information for grid number                                          5
 RS_GRID:   Bounds   1            -30      29                Points:          60
 RS_GRID:   Bounds   2            -30      29                Points:          60
 RS_GRID:   Bounds   3            -30      29                Points:          60
 RS_GRID: Real space fully replicated
 RS_GRID: Group size                                                           1

 DISTRIBUTION OF THE PARTICLES (ROWS)
              Process row      Number of particles         Number of matrix rows
                        0                        8                            -1
                        1                        6                            -1
                      Sum                       14                            -1

 DISTRIBUTION OF THE PARTICLES (COLUMNS)
              Process col      Number of particles      Number of matrix columns
                        0                        4                            -1
                        1                        4                            -1
                        2                        3                            -1
                        3                        3                            -1
                      Sum                       14                            -1

 *******************************************************************************
 ***                     STARTING GEOMETRY OPTIMIZATION                      ***
 ***                                   BFGS                                  ***
 *******************************************************************************

 DISTRIBUTION OF THE NEIGHBOR LISTS
              Total number of particle pairs:                                105
              Total number of matrix elements:                             17745
              Average number of particle pairs:                               14
              Maximum number of particle pairs:                               20
              Average number of matrix element:                             2219
              Maximum number of matrix elements:                            3380


 DISTRIBUTION OF THE OVERLAP MATRIX
              Number  of non-zero blocks:                                    105
              Percentage non-zero blocks:                                 100.00
              Average number of blocks per CPU:                               14
              Maximum number of blocks per CPU:                               20
              Average number of matrix elements per CPU:                    2219
              Maximum number of matrix elements per CPU:                    3380

 Spin 1

 Number of electrons:                                                         40
 Number of occupied orbitals:                                                 40
 Number of molecular orbitals:                                                40

 Spin 2

 Number of electrons:                                                         40
 Number of occupied orbitals:                                                 40
 Number of molecular orbitals:                                                40

 Number of orbital functions:                                                182
 Number of independent orbital functions:                                    182

 Extrapolation method: initial_guess

 Atomic guess: The first density matrix is obtained in terms of atomic orbitals
               and electronic configurations assigned to each atomic kind

 Spin 1

 Guess for atomic kind: O

 Electronic structure
    Total number of core electrons                                          2.00
    Total number of valence electrons                                       6.00
    Total number of electrons                                               8.00
    Multiplicity                                                   not specified
    S   [  2.00] 2.00
    P      4.00


 *******************************************************************************
                  Iteration          Convergence                     Energy [au]
 *******************************************************************************
                          1         1.59807                     -14.860601438858
                          2         2.10429                     -14.911792617606
                          3        0.907503E-01                 -15.655516752884
                          4        0.288621E-02                 -15.656865750737
                          5        0.119119E-02                 -15.656866873291
                          6        0.740468E-03                 -15.656867014560
                          7        0.292240E-04                 -15.656867103307
                          8        0.185245E-06                 -15.656867103452

 Energy components [Hartree]           Total Energy ::          -15.656867103452
                                        Band Energy ::           -3.000198979664
                                     Kinetic Energy ::           11.759972915296
                                   Potential Energy ::          -27.416840018748
                                      Virial (-V/T) ::            2.331369316598
                                        Core Energy ::          -26.140717222249
                                          XC Energy ::           -3.154051243207
                                     Coulomb Energy ::           13.637901362004
                       Total Pseudopotential Energy ::          -37.935784258805
                       Local Pseudopotential Energy ::          -39.218909979177
                    Nonlocal Pseudopotential Energy ::            1.283125720372
                                        Confinement ::            0.350941212594

 Orbital energies  State     L     Occupation   Energy[a.u.]          Energy[eV]

                       1     0          2.000      -0.864472          -23.523467

                       1     1          4.000      -0.317814           -8.648158


 Guess for atomic kind: P

 Electronic structure
    Total number of core electrons                                         10.00
    Total number of valence electrons                                       5.00
    Total number of electrons                                              15.00
    Multiplicity                                                   not specified
    S   [  2.00  2.00] 2.00
    P   [  6.00] 3.00


 *******************************************************************************
                  Iteration          Convergence                     Energy [au]
 *******************************************************************************
                          1        0.572653                      -6.064250527461
                          2        0.280008                      -6.257223105200
                          3        0.483453E-02                  -6.297142776629
                          4        0.180297E-03                  -6.297154042919
                          5        0.997046E-04                  -6.297154053613
                          6        0.694860E-04                  -6.297154056036
                          7        0.406115E-06                  -6.297154058324

 Energy components [Hartree]           Total Energy ::           -6.297154058324
                                        Band Energy ::           -1.506731195312
                                     Kinetic Energy ::            2.371946416890
                                   Potential Energy ::           -8.669100475214
                                      Virial (-V/T) ::            3.654846675069
                                        Core Energy ::          -10.073066291116
                                          XC Energy ::           -1.458874787557
                                     Coulomb Energy ::            5.234787020350
                       Total Pseudopotential Energy ::          -12.505480874250
                       Local Pseudopotential Energy ::          -13.856216849132
                    Nonlocal Pseudopotential Energy ::            1.350735974882
                                        Confinement ::            0.604681662434

 Orbital energies  State     L     Occupation   Energy[a.u.]          Energy[eV]

                       1     0          2.000      -0.488209          -13.284849

                       1     1          3.000      -0.176771           -4.810181

 Re-scaling the density matrix to get the right number of electrons for spin 1
                  # Electrons              Trace(P)               Scaling factor
                           40                40.000                        1.000

 Spin 2

 Guess for atomic kind: O

 Electronic structure
    Total number of core electrons                                          2.00
    Total number of valence electrons                                       6.00
    Total number of electrons                                               8.00
    Multiplicity                                                   not specified
    S   [  2.00] 2.00
    P      4.00


 *******************************************************************************
                  Iteration          Convergence                     Energy [au]
 *******************************************************************************
                          1         1.59807                     -14.860601438858
                          2         2.10429                     -14.911792617606
                          3        0.907503E-01                 -15.655516752884
                          4        0.288621E-02                 -15.656865750737
                          5        0.119119E-02                 -15.656866873291
                          6        0.740468E-03                 -15.656867014560
                          7        0.292240E-04                 -15.656867103307
                          8        0.185245E-06                 -15.656867103452

 Energy components [Hartree]           Total Energy ::          -15.656867103452
                                        Band Energy ::           -3.000198979664
                                     Kinetic Energy ::           11.759972915296
                                   Potential Energy ::          -27.416840018748
                                      Virial (-V/T) ::            2.331369316598
                                        Core Energy ::          -26.140717222249
                                          XC Energy ::           -3.154051243207
                                     Coulomb Energy ::           13.637901362004
                       Total Pseudopotential Energy ::          -37.935784258805
                       Local Pseudopotential Energy ::          -39.218909979177
                    Nonlocal Pseudopotential Energy ::            1.283125720372
                                        Confinement ::            0.350941212594

 Orbital energies  State     L     Occupation   Energy[a.u.]          Energy[eV]

                       1     0          2.000      -0.864472          -23.523467

                       1     1          4.000      -0.317814           -8.648158


 Guess for atomic kind: P

 Electronic structure
    Total number of core electrons                                         10.00
    Total number of valence electrons                                       5.00
    Total number of electrons                                              15.00
    Multiplicity                                                   not specified
    S   [  2.00  2.00] 2.00
    P   [  6.00] 3.00


 *******************************************************************************
                  Iteration          Convergence                     Energy [au]
 *******************************************************************************
                          1        0.572653                      -6.064250527461
                          2        0.280008                      -6.257223105200
                          3        0.483453E-02                  -6.297142776629
                          4        0.180297E-03                  -6.297154042919
                          5        0.997046E-04                  -6.297154053613
                          6        0.694860E-04                  -6.297154056036
                          7        0.406115E-06                  -6.297154058324

 Energy components [Hartree]           Total Energy ::           -6.297154058324
                                        Band Energy ::           -1.506731195312
                                     Kinetic Energy ::            2.371946416890
                                   Potential Energy ::           -8.669100475214
                                      Virial (-V/T) ::            3.654846675069
                                        Core Energy ::          -10.073066291116
                                          XC Energy ::           -1.458874787557
                                     Coulomb Energy ::            5.234787020350
                       Total Pseudopotential Energy ::          -12.505480874250
                       Local Pseudopotential Energy ::          -13.856216849132
                    Nonlocal Pseudopotential Energy ::            1.350735974882
                                        Confinement ::            0.604681662434

 Orbital energies  State     L     Occupation   Energy[a.u.]          Energy[eV]

                       1     0          2.000      -0.488209          -13.284849

                       1     1          3.000      -0.176771           -4.810181

 Re-scaling the density matrix to get the right number of electrons for spin 2
                  # Electrons              Trace(P)               Scaling factor
                           40                40.000                        1.000


 SCF WAVEFUNCTION OPTIMIZATION

  ----------------------------------- OT ---------------------------------------

  Allowing for rotations:  F
  Optimizing orbital energies:  F
  Minimizer      : DIIS                : direct inversion
                                         in the iterative subspace
                            using      : -   7 DIIS vectors
                                         - safer DIIS on
  Preconditioner : FULL_ALL            : diagonalization, state selective
  Precond_solver : DEFAULT
  stepsize       :    0.15000000
  energy_gap     :    0.20000000

  eps_taylor     :   0.10000E-15
  max_taylor     :             4

  mixed_precision    : F

  ----------------------------------- OT ---------------------------------------

  Step     Update method      Time    Convergence         Total energy    Change
  ------------------------------------------------------------------------------

  Trace(PS):                                   80.0000000000
  Electronic density on regular grids:        -76.6640376932        3.3359623068
  Core density on regular grids:               19.9999999973      -60.0000000027
  Hard and soft densities (Lebedev):         -312.8395354125     -309.5035733767
  Total Rho_soft + Rho1_hard - Rho1_soft      -79.9999997289
  Total charge density (r-space):             -59.9999997316
  Total Rho_soft + Rho0_soft (g-space):        -0.0000003029

  Decoupling Energy:                                               0.0000144164
     1 OT DIIS     0.15E+00   29.6     0.04298935      -180.5201656322 -1.81E+02

  Trace(PS):                                   80.0000000000
  Electronic density on regular grids:        -76.9135925625        3.0864074375
  Core density on regular grids:               19.9999999973      -60.0000000027
  Hard and soft densities (Lebedev):         -284.9046362898     -281.8182297396
  Total Rho_soft + Rho1_hard - Rho1_soft      -79.9999991128
  Total charge density (r-space):             -59.9999991155
  Total Rho_soft + Rho0_soft (g-space):         0.0000003107

  Decoupling Energy:                                               0.0000980495
     2 OT DIIS     0.15E+00   36.1     0.03410376      -183.5151236122 -2.99E+00

  Trace(PS):                                   80.0000000000
  Electronic density on regular grids:        -76.9421414185        3.0578585815
  Core density on regular grids:               19.9999999973      -60.0000000027
  Hard and soft densities (Lebedev):         -261.1541366526     -258.0962792078
  Total Rho_soft + Rho1_hard - Rho1_soft      -79.9999988633
  Total charge density (r-space):             -59.9999988660
  Total Rho_soft + Rho0_soft (g-space):         0.0000005597

  Decoupling Energy:                                               0.0000607201
     3 OT DIIS     0.15E+00   36.1     0.02371331      -184.8078074279 -1.29E+00

  Trace(PS):                                   80.0000000000
  Electronic density on regular grids:        -77.2349020239        2.7650979761
  Core density on regular grids:               19.9999999973      -60.0000000027
  Hard and soft densities (Lebedev):         -260.0157296383     -257.2506331678
  Total Rho_soft + Rho1_hard - Rho1_soft      -79.9999984944
  Total charge density (r-space):             -59.9999984971
  Total Rho_soft + Rho0_soft (g-space):         0.0000009257

  Decoupling Energy:                                               0.0001087943
     4 OT DIIS     0.15E+00   36.2     0.01322616      -185.9056324263 -1.10E+00

  Trace(PS):                                   80.0000000000
  Electronic density on regular grids:        -77.1035559230        2.8964440770
  Core density on regular grids:               19.9999999973      -60.0000000027
  Hard and soft densities (Lebedev):         -250.0345938452     -247.1381511878
  Total Rho_soft + Rho1_hard - Rho1_soft      -79.9999985804
  Total charge density (r-space):             -59.9999985831
  Total Rho_soft + Rho0_soft (g-space):         0.0000008410

  Decoupling Energy:                                               0.0000065408
     5 OT DIIS     0.15E+00   36.2     0.00930176      -186.0489261236 -1.43E-01

  Trace(PS):                                   80.0000000000
  Electronic density on regular grids:        -77.1323030655        2.8676969345
  Core density on regular grids:               19.9999999973      -60.0000000027
  Hard and soft densities (Lebedev):         -249.7439722854     -246.8762767643
  Total Rho_soft + Rho1_hard - Rho1_soft      -79.9999985866
  Total charge density (r-space):             -59.9999985893
  Total Rho_soft + Rho0_soft (g-space):         0.0000008345

  Decoupling Energy:                                               0.0000172308
     6 OT DIIS     0.15E+00   36.3     0.00707081      -186.2249531474 -1.76E-01

  Trace(PS):                                   80.0000000000
  Electronic density on regular grids:        -77.1467463745        2.8532536255
  Core density on regular grids:               19.9999999973      -60.0000000027
  Hard and soft densities (Lebedev):         -249.1507131056     -246.2974608815
  Total Rho_soft + Rho1_hard - Rho1_soft      -79.9999985986
  Total charge density (r-space):             -59.9999986013
  Total Rho_soft + Rho0_soft (g-space):         0.0000008225

  Decoupling Energy:                                               0.0000096927
     7 OT DIIS     0.15E+00   36.3     0.00617958      -186.3568719933 -1.32E-01

  Trace(PS):                                   80.0000000000
  Electronic density on regular grids:        -77.1183666019        2.8816333981
  Core density on regular grids:               19.9999999973      -60.0000000027
  Hard and soft densities (Lebedev):         -246.0138127125     -243.1321806857
  Total Rho_soft + Rho1_hard - Rho1_soft      -79.9999986286
  Total charge density (r-space):             -59.9999986313
  Total Rho_soft + Rho0_soft (g-space):         0.0000007928

  Decoupling Energy:                                               0.0000016310
     8 OT DIIS     0.15E+00   36.2     0.00591853      -186.4583425295 -1.01E-01

  Trace(PS):                                   80.0000000000
  Electronic density on regular grids:        -77.1216311310        2.8783688690
  Core density on regular grids:               19.9999999973      -60.0000000027
  Hard and soft densities (Lebedev):         -245.0953897271     -242.2170222061
  Total Rho_soft + Rho1_hard - Rho1_soft      -79.9999986521
  Total charge density (r-space):             -59.9999986548
  Total Rho_soft + Rho0_soft (g-space):         0.0000007693

  Decoupling Energy:                                              -0.0000047962
     9 OT DIIS     0.15E+00   36.0     0.00501184      -186.5464070922 -8.81E-02

  Trace(PS):                                   80.0000000000
  Electronic density on regular grids:        -77.1422343970        2.8577656030
  Core density on regular grids:               19.9999999973      -60.0000000027
  Hard and soft densities (Lebedev):         -245.2251615385     -242.3673972570
  Total Rho_soft + Rho1_hard - Rho1_soft      -79.9999986784
  Total charge density (r-space):             -59.9999986811
  Total Rho_soft + Rho0_soft (g-space):         0.0000007428

  Decoupling Energy:                                              -0.0000051611
    10 OT DIIS     0.15E+00   36.3     0.00342538      -186.6437842737 -9.74E-02

  Trace(PS):                                   80.0000000000
  Electronic density on regular grids:        -77.1350360482        2.8649639518
  Core density on regular grids:               19.9999999973      -60.0000000027
  Hard and soft densities (Lebedev):         -244.2500443976     -241.3850817466
  Total Rho_soft + Rho1_hard - Rho1_soft      -79.9999986993
  Total charge density (r-space):             -59.9999987020
  Total Rho_soft + Rho0_soft (g-space):         0.0000007219

  Decoupling Energy:                                              -0.0000079852
    11 OT DIIS     0.15E+00   36.1     0.00227350      -186.6895926190 -4.58E-02

  Trace(PS):                                   80.0000000000
  Electronic density on regular grids:        -77.1633213199        2.8366786801
  Core density on regular grids:               19.9999999973      -60.0000000027
  Hard and soft densities (Lebedev):         -246.3186386216     -243.4819612303
  Total Rho_soft + Rho1_hard - Rho1_soft      -79.9999987112
  Total charge density (r-space):             -59.9999987139
  Total Rho_soft + Rho0_soft (g-space):         0.0000007097

  Decoupling Energy:                                              -0.0000086863
    12 OT DIIS     0.15E+00   36.1     0.00217203      -186.7129485456 -2.34E-02

  Trace(PS):                                   80.0000000000
  Electronic density on regular grids:        -77.1380827635        2.8619172365
  Core density on regular grids:               19.9999999973      -60.0000000027
  Hard and soft densities (Lebedev):         -244.4531016515     -241.5911857044
  Total Rho_soft + Rho1_hard - Rho1_soft      -79.9999987107
  Total charge density (r-space):             -59.9999987134
  Total Rho_soft + Rho0_soft (g-space):         0.0000007104

  Decoupling Energy:                                              -0.0000089410
    13 OT DIIS     0.15E+00   35.9     0.00117846      -186.7166198361 -3.67E-03

  Trace(PS):                                   80.0000000000
  Electronic density on regular grids:        -77.1324436544        2.8675563456
  Core density on regular grids:               19.9999999973      -60.0000000027
  Hard and soft densities (Lebedev):         -244.1808639297     -241.3133088708
  Total Rho_soft + Rho1_hard - Rho1_soft      -79.9999987133
  Total charge density (r-space):             -59.9999987160
  Total Rho_soft + Rho0_soft (g-space):         0.0000007078

  Decoupling Energy:                                              -0.0000090818
    14 OT DIIS     0.15E+00   36.1     0.00139634      -186.7185619481 -1.94E-03

  Trace(PS):                                   80.0000000000
  Electronic density on regular grids:        -77.1452075342        2.8547924658
  Core density on regular grids:               19.9999999973      -60.0000000027
  Hard and soft densities (Lebedev):         -245.1965299189     -242.3417387365
  Total Rho_soft + Rho1_hard - Rho1_soft      -79.9999987166
  Total charge density (r-space):             -59.9999987193
  Total Rho_soft + Rho0_soft (g-space):         0.0000007044

  Decoupling Energy:                                              -0.0000089781
    15 OT DIIS     0.15E+00   36.3     0.00058938      -186.7245360654 -5.97E-03

  Trace(PS):                                   80.0000000000
  Electronic density on regular grids:        -77.1400565713        2.8599434287
  Core density on regular grids:               19.9999999973      -60.0000000027
  Hard and soft densities (Lebedev):         -244.8636893692     -242.0037472224
  Total Rho_soft + Rho1_hard - Rho1_soft      -79.9999987182
  Total charge density (r-space):             -59.9999987209
  Total Rho_soft + Rho0_soft (g-space):         0.0000007029

  Decoupling Energy:                                              -0.0000091504
    16 OT DIIS     0.15E+00   36.2     0.00050724      -186.7260188431 -1.48E-03

  Trace(PS):                                   80.0000000000
  Electronic density on regular grids:        -77.1431576054        2.8568423946
  Core density on regular grids:               19.9999999973      -60.0000000027
  Hard and soft densities (Lebedev):         -245.1297017036     -242.2728605898
  Total Rho_soft + Rho1_hard - Rho1_soft      -79.9999987192
  Total charge density (r-space):             -59.9999987219
  Total Rho_soft + Rho0_soft (g-space):         0.0000007019

  Decoupling Energy:                                              -0.0000091114
    17 OT DIIS     0.15E+00   36.2     0.00033321      -186.7270439137 -1.03E-03

  Trace(PS):                                   80.0000000000
  Electronic density on regular grids:        -77.1429889244        2.8570110756
  Core density on regular grids:               19.9999999973      -60.0000000027
  Hard and soft densities (Lebedev):         -245.1186840668     -242.2616742716
  Total Rho_soft + Rho1_hard - Rho1_soft      -79.9999987196
  Total charge density (r-space):             -59.9999987223
  Total Rho_soft + Rho0_soft (g-space):         0.0000007014

  Decoupling Energy:                                              -0.0000091346
    18 OT DIIS     0.15E+00   36.2     0.00027154      -186.7276908560 -6.47E-04

  Trace(PS):                                   80.0000000000
  Electronic density on regular grids:        -77.1432004214        2.8567995786
  Core density on regular grids:               19.9999999973      -60.0000000027
  Hard and soft densities (Lebedev):         -245.1231739390     -242.2663756407
  Total Rho_soft + Rho1_hard - Rho1_soft      -79.9999987197
  Total charge density (r-space):             -59.9999987224
  Total Rho_soft + Rho0_soft (g-space):         0.0000007013

  Decoupling Energy:                                              -0.0000091356
    19 OT DIIS     0.15E+00   36.1     0.00021723      -186.7282478207 -5.57E-04

  Trace(PS):                                   80.0000000000
  Electronic density on regular grids:        -77.1431183157        2.8568816843
  Core density on regular grids:               19.9999999973      -60.0000000027
  Hard and soft densities (Lebedev):         -245.1091904260     -242.2523100219
  Total Rho_soft + Rho1_hard - Rho1_soft      -79.9999987199
  Total charge density (r-space):             -59.9999987226
  Total Rho_soft + Rho0_soft (g-space):         0.0000007012

  Decoupling Energy:                                              -0.0000091393
    20 OT DIIS     0.15E+00   36.3     0.00017756      -186.7286333228 -3.86E-04

  Trace(PS):                                   80.0000000000
  Electronic density on regular grids:        -77.1436081774        2.8563918226
  Core density on regular grids:               19.9999999973      -60.0000000027
  Hard and soft densities (Lebedev):         -245.1486861246     -242.2922955820
  Total Rho_soft + Rho1_hard - Rho1_soft      -79.9999987200
  Total charge density (r-space):             -59.9999987227
  Total Rho_soft + Rho0_soft (g-space):         0.0000007010

  Decoupling Energy:                                              -0.0000091346
    21 OT DIIS     0.15E+00   36.3     0.00014630      -186.7289306122 -2.97E-04

  Trace(PS):                                   80.0000000000
  Electronic density on regular grids:        -77.1434486598        2.8565513402
  Core density on regular grids:               19.9999999973      -60.0000000027
  Hard and soft densities (Lebedev):         -245.1349347257     -242.2783846653
  Total Rho_soft + Rho1_hard - Rho1_soft      -79.9999987202
  Total charge density (r-space):             -59.9999987229
  Total Rho_soft + Rho0_soft (g-space):         0.0000007008

  Decoupling Energy:                                              -0.0000091367
    22 OT DIIS     0.15E+00   36.2     0.00012119      -186.7291056567 -1.75E-04

  Trace(PS):                                   80.0000000000
  Electronic density on regular grids:        -77.1436967286        2.8563032714
  Core density on regular grids:               19.9999999973      -60.0000000027
  Hard and soft densities (Lebedev):         -245.1565200287     -242.3002180368
  Total Rho_soft + Rho1_hard - Rho1_soft      -79.9999987204
[...]
              Total number of particle pairs:                                105
              Total number of matrix elements:                             17745
              Average number of particle pairs:                               14
              Maximum number of particle pairs:                               20
              Average number of matrix element:                             2219
              Maximum number of matrix elements:                            3380


 DISTRIBUTION OF THE OVERLAP MATRIX
              Number  of non-zero blocks:                                    105
              Percentage non-zero blocks:                                 100.00
              Average number of blocks per CPU:                               14
              Maximum number of blocks per CPU:                               20
              Average number of matrix elements per CPU:                    2219
              Maximum number of matrix elements per CPU:                    3380

 Spin 1

 Number of electrons:                                                         40
 Number of occupied orbitals:                                                 40
 Number of molecular orbitals:                                                40

 Spin 2

 Number of electrons:                                                         40
 Number of occupied orbitals:                                                 40
 Number of molecular orbitals:                                                40

 Number of orbital functions:                                                182
 Number of independent orbital functions:                                    182

 Extrapolation method: PS Nth order


 SCF WAVEFUNCTION OPTIMIZATION

  ----------------------------------- OT ---------------------------------------

  Allowing for rotations:  F
  Optimizing orbital energies:  F
  Minimizer      : DIIS                : direct inversion
                                         in the iterative subspace
                            using      : -   7 DIIS vectors
                                         - safer DIIS on
  Preconditioner : FULL_ALL            : diagonalization, state selective
  Precond_solver : DEFAULT
  stepsize       :    0.15000000
  energy_gap     :    0.20000000

  eps_taylor     :   0.10000E-15
  max_taylor     :             4

  mixed_precision    : F

  ----------------------------------- OT ---------------------------------------

  Step     Update method      Time    Convergence         Total energy    Change
  ------------------------------------------------------------------------------

  Trace(PS):                                   80.0000000000
  Electronic density on regular grids:        -76.8074119524        3.1925880476
  Core density on regular grids:               19.9999999973      -60.0000000027
  Hard and soft densities (Lebedev):         -259.9017793586     -256.7091957332
  Total Rho_soft + Rho1_hard - Rho1_soft      -79.9999955778
  Total charge density (r-space):             -59.9999955805
  Total Rho_soft + Rho0_soft (g-space):         0.0000038478

  Decoupling Energy:                                              -0.0000215761
     1 OT DIIS     0.15E+00   29.7     0.00018938      -186.9437009612 -1.87E+02

  Trace(PS):                                   80.0000000000
  Electronic density on regular grids:        -76.8073242633        3.1926757367
  Core density on regular grids:               19.9999999973      -60.0000000027
  Hard and soft densities (Lebedev):         -259.9018229778     -256.7091516630
  Total Rho_soft + Rho1_hard - Rho1_soft      -79.9999955781
  Total charge density (r-space):             -59.9999955808
  Total Rho_soft + Rho0_soft (g-space):         0.0000038476

  Decoupling Energy:                                              -0.0000215875
     2 OT DIIS     0.15E+00   36.1     0.00012418      -186.9437640626 -6.31E-05

  Trace(PS):                                   80.0000000000
  Electronic density on regular grids:        -76.8070760613        3.1929239387
  Core density on regular grids:               19.9999999973      -60.0000000027
  Hard and soft densities (Lebedev):         -259.8907381489     -256.6978186320
  Total Rho_soft + Rho1_hard - Rho1_soft      -79.9999955782
  Total charge density (r-space):             -59.9999955809
  Total Rho_soft + Rho0_soft (g-space):         0.0000038474

  Decoupling Energy:                                              -0.0000215994
     3 OT DIIS     0.15E+00   36.1     0.00005403      -186.9438090054 -4.49E-05

  Trace(PS):                                   80.0000000000
  Electronic density on regular grids:        -76.8070201264        3.1929798736
  Core density on regular grids:               19.9999999973      -60.0000000027
  Hard and soft densities (Lebedev):         -259.8955412009     -256.7025657490
  Total Rho_soft + Rho1_hard - Rho1_soft      -79.9999955783
  Total charge density (r-space):             -59.9999955810
  Total Rho_soft + Rho0_soft (g-space):         0.0000038473

  Decoupling Energy:                                              -0.0000215985
     4 OT DIIS     0.15E+00   36.2     0.00000522      -186.9438193290 -1.03E-05

  Trace(PS):                                   80.0000000000
  Electronic density on regular grids:        -76.8070132422        3.1929867578
  Core density on regular grids:               19.9999999973      -60.0000000027
  Hard and soft densities (Lebedev):         -259.8965696931     -256.7035873570
  Total Rho_soft + Rho1_hard - Rho1_soft      -79.9999955783
  Total charge density (r-space):             -59.9999955810
  Total Rho_soft + Rho0_soft (g-space):         0.0000038474

  Decoupling Energy:                                              -0.0000215973
     5 OT DIIS     0.15E+00   36.1     0.00000255      -186.9438193863 -5.73E-08

  Trace(PS):                                   80.0000000000
  Electronic density on regular grids:        -76.8070138583        3.1929861417
  Core density on regular grids:               19.9999999973      -60.0000000027
  Hard and soft densities (Lebedev):         -259.8980112796     -256.7050295597
  Total Rho_soft + Rho1_hard - Rho1_soft      -79.9999955782
  Total charge density (r-space):             -59.9999955809
  Total Rho_soft + Rho0_soft (g-space):         0.0000038474

  Decoupling Energy:                                              -0.0000215960
     6 OT DIIS     0.15E+00   36.2     0.00000058      -186.9438194037 -1.74E-08

  Trace(PS):                                   80.0000000000
  Electronic density on regular grids:        -76.8070101047        3.1929898953
  Core density on regular grids:               19.9999999973      -60.0000000027
  Hard and soft densities (Lebedev):         -259.8977144614     -256.7047289879
  Total Rho_soft + Rho1_hard - Rho1_soft      -79.9999955782
  Total charge density (r-space):             -59.9999955809
  Total Rho_soft + Rho0_soft (g-space):         0.0000038474

  Decoupling Energy:                                              -0.0000215961
     7 OT DIIS     0.15E+00   36.2     0.00000025      -186.9438194046 -8.25E-10

  Trace(PS):                                   80.0000000000
  Electronic density on regular grids:        -76.8070107227        3.1929892773
  Core density on regular grids:               19.9999999973      -60.0000000027
  Hard and soft densities (Lebedev):         -259.8977001870     -256.7047153314
  Total Rho_soft + Rho1_hard - Rho1_soft      -79.9999955782
  Total charge density (r-space):             -59.9999955809
  Total Rho_soft + Rho0_soft (g-space):         0.0000038474

  Decoupling Energy:                                              -0.0000215962
     8 OT DIIS     0.15E+00   36.2     0.00000007      -186.9438194048 -1.79E-10

  *** SCF run converged in     8 steps ***


  Electronic density on regular grids:        -76.8070107227        3.1929892773
  Core density on regular grids:               19.9999999973      -60.0000000027
  Hard and soft densities (Lebedev):         -259.8977001870     -256.7047153314
  Total Rho_soft + Rho1_hard - Rho1_soft      -79.9999955782
  Total charge density (r-space):             -59.9999955809
  Total Rho_soft + Rho0_soft (g-space):         0.0000038474

  Overlap energy of the core charge distribution:               0.00000152038158
  Self energy of the core charge distribution:               -480.86551073740225
  Core Hamiltonian energy:                                    134.38522883998832
  Hartree energy:                                             151.58536826637715
  Exchange-correlation energy:                                -39.21092728403458
  Dispersion energy:                                           -0.00956991026141

  GAPW| Exc from hard and soft atomic rho1:                    -3.22365723101544
  GAPW| local Eh = 1 center integrals:                         50.39524713121254

  Total energy:                                              -186.94381940475407

  Integrated absolute spin density  :                               0.0000000000
  Ideal and single determinant S**2 :                    0.000000      -0.000000


 MULLIKEN POPULATION ANALYSIS

 # Atom  Element  Kind  Atomic population (alpha,beta)   Net charge  Spin moment
      1     O        1           3.203476     3.203476    -0.406951     0.000000
      2     O        1           3.203491     3.203491    -0.406983    -0.000000
      3     P        2           2.028722     2.028722     0.942555     0.000000
      4     P        2           2.028707     2.028707     0.942585    -0.000000
      5     O        1           3.166087     3.166087    -0.332175    -0.000000
      6     O        1           3.203445     3.203445    -0.406891     0.000000
      7     P        2           2.028662     2.028662     0.942677     0.000000
      8     O        1           3.166094     3.166094    -0.332189    -0.000000
      9     O        1           3.203518     3.203518    -0.407036    -0.000000
     10     O        1           3.203446     3.203446    -0.406892     0.000000
     11     O        1           3.203462     3.203462    -0.406924     0.000000
     12     O        1           3.166095     3.166095    -0.332189    -0.000000
     13     P        2           2.028704     2.028704     0.942592    -0.000000
     14     O        1           3.166090     3.166090    -0.332179     0.000000
 # Total charge and spin        40.000000    40.000000    -0.000000     0.000000


 ENERGY| Total FORCE_EVAL ( QS ) energy (a.u.):             -186.943819404754066


 -------------------------------------------------------------------------------
 ----                             MULTIGRID INFO                            ----
 -------------------------------------------------------------------------------
 count for grid        1:          62748          cutoff [a.u.]          150.00
 count for grid        2:          43713          cutoff [a.u.]           50.00
 count for grid        3:          44015          cutoff [a.u.]           16.67
 count for grid        4:          19020          cutoff [a.u.]            5.56
 total gridlevel count  :         169496

 -------------------------------------------------------------------------------
 -                                                                             -
 -                         MESSAGE PASSING PERFORMANCE                         -
 -                                                                             -
 -------------------------------------------------------------------------------

 ROUTINE             CALLS  TOT TIME [s]  AVE VOLUME [Bytes]  PERFORMANCE [MB/s]
 MP_Group                5         0.000
 MP_Bcast             9231         1.193             118404.              916.17
 MP_Allreduce        16388        67.041              20839.                5.09
 MP_Gather              44         0.003                128.                1.88
 MP_Sync               386         0.004
 MP_Alltoall          8302      1279.032          113986363.              739.87
 MP_SendRecv           280         0.002                266.               37.24
 MP_ISendRecv        11956         0.140             557568.            47616.31
 MP_Wait             44281       311.774
 MP_comm_split         382         0.077
 MP_ISend            25860         6.463            4224442.            16903.00
 MP_IRecv            25860         0.160            4224462.           682778.67
 MP_Recv               117         0.003              12053.              470.06
 -------------------------------------------------------------------------------


 -------------------------------------------------------------------------------
 -                                                                             -
 -                           R E F E R E N C E S                               -
 -                                                                             -
 -------------------------------------------------------------------------------
 
 CP2K version 2.4 (Development Version), the CP2K developers group (2013).
 CP2K is freely available from http://www.cp2k.org/ .

 Grimme, S; Antony, J; Ehrlich, S; Krieg, H. 
 JOURNAL OF CHEMICAL PHYSICS, 132 (15), 154104 (2010). 
 A consistent and accurate ab initio parametrization of density
 functional dispersion correction (DFT-D) for the 94 elements H-Pu.
 http://dx.doi.org/10.1063/1.3382344


 VandeVondele, J; Hutter, J. 
 JOURNAL OF CHEMICAL PHYSICS, 127 (11), 114105 (2007). 
 Gaussian basis sets for accurate calculations on molecular systems in
 gas and condensed phases.
 http://dx.doi.org/10.1063/1.2770708


 Krack, M. 
 THEORETICAL CHEMISTRY ACCOUNTS, 114 (1-3), 145-152 (2005). 
 Pseudopotentials for H to Kr optimized for gradient-corrected
 exchange-correlation functionals.
 http://dx.doi.org/10.1007/s00214-005-0655-y


 VandeVondele, J; Krack, M; Mohamed, F; Parrinello, M; Chassaing, T;
 Hutter, J. COMPUTER PHYSICS COMMUNICATIONS, 167 (2), 103-128 (2005). 
 QUICKSTEP: Fast and accurate density functional calculations using a
 mixed Gaussian and plane waves approach.
 http://dx.doi.org/10.1016/j.cpc.2004.12.014


 Frigo, M; Johnson, SG. 
 PROCEEDINGS OF THE IEEE, 93 (2), 216-231 (2005). 
 The design and implementation of FFTW3.
 http://dx.doi.org/10.1109/JPROC.2004.840301


 VandeVondele, J; Hutter, J. 
 JOURNAL OF CHEMICAL PHYSICS, 118 (10), 4365-4369 (2003). 
 An efficient orbital transformation method for electronic structure
 calculations.
 http://dx.doi.org/10.1063/1.1543154


 Lippert, G; Hutter, J; Parrinello, M. 
 THEORETICAL CHEMISTRY ACCOUNTS, 103 (2), 124-140 (1999). 
 The Gaussian and augmented-plane-wave density functional method for ab
 initio molecular dynamics simulations.
 http://dx.doi.org/10.1007/s002140050523


 Krack, M; Parrinello, M. 
 PHYSICAL CHEMISTRY CHEMICAL PHYSICS, 2 (10), 2105-2112 (2000). 
 All-electron ab-initio molecular dynamics.
 http://dx.doi.org/10.1039/b001167n


 Hartwigsen, C; Goedecker, S; Hutter, J. 
 PHYSICAL REVIEW B, 58 (7), 3641-3662 (1998). 
 Relativistic separable dual-space Gaussian pseudopotentials from H to Rn.
 http://dx.doi.org/10.1103/PhysRevB.58.3641


 Perdew, JP; Burke, K; Ernzerhof, M. 
 PHYSICAL REVIEW LETTERS, 77 (18), 3865-3868 (1996). 
 Generalized gradient approximation made simple.
 http://dx.doi.org/10.1103/PhysRevLett.77.3865


 Goedecker, S; Teter, M; Hutter, J. 
 PHYSICAL REVIEW B, 54 (3), 1703-1710 (1996). 
 Separable dual-space Gaussian pseudopotentials.
 http://dx.doi.org/10.1103/PhysRevB.54.1703


 BLOCHL, PE. 
 JOURNAL OF CHEMICAL PHYSICS, 103 (17), 7422-7428 (1995). 
 ELECTROSTATIC DECOUPLING OF PERIODIC IMAGES OF PLANE-WAVE-EXPANDED
 DENSITIES AND DERIVED ATOMIC POINT CHARGES.
 http://dx.doi.org/10.1063/1.470314


 -------------------------------------------------------------------------------
 -                                                                             -
 -                                T I M I N G                                  -
 -                                                                             -
 -------------------------------------------------------------------------------
 SUBROUTINE                       CALLS  ASD         SELF TIME        TOTAL TIME
                                              AVERAGE  MAXIMUM  AVERAGE  MAXIMUM
 CP2K                                 1  1.0    0.185    0.207 7755.934 7755.952
 geoopt_bfgs                          1  3.0    0.004    0.022 7752.581 7752.582
 cp_geo_opt                           1  2.0    0.000    0.000 7752.581 7752.582
 cp_eval_at                          11  4.0    0.003    0.005 7752.150 7752.150
 qs_forces                           10  5.0    0.012    0.014 7453.826 7453.827
 qs_energies_scf                     11  5.9    0.000    0.001 7452.701 7452.702
 scf_env_do_scf                      11  6.9    0.004    0.009 7355.341 7355.345
 scf_env_do_scf_inner_loop          203  8.0    0.095    0.128 7032.064 7032.069
 qs_ks_build_kohn_sham_matrix       213  9.8    3.797    6.896 6210.389 6210.406
 fft_wrap_pw1pw2                   7263 13.0    0.380    0.481 5909.284 6045.704
 qs_ks_update_qs_env                214  9.0    0.013    0.017 5912.511 5912.528
 fft_wrap_pw1pw2_150               4701 14.0  364.809  369.992 5674.461 5802.103
 fft3d_ps                          7263 15.0 2648.142 2655.707 4547.803 4703.395
 qs_vxc_create                      213 10.8    0.018    0.023 4348.248 4348.250
 xc_vxc_pw_create                   213 11.8   77.362   87.560 4348.231 4348.232
 xc_rho_set_and_dset_create         213 12.8   37.220   37.899 1914.550 2151.867
 qs_rho_update_rho                  214  9.0    0.011    0.016 1449.627 1449.633
 calculate_rho_elec                 428 10.0   29.357   32.598 1441.690 1441.696
 density_rs2pw                      428 11.0    0.053    0.068 1392.527 1395.198
 yz_to_x                           3640 15.5  979.531 1119.117  979.531 1119.117
 sum_up_and_integrate               213 10.8   29.521   30.082  944.492  944.522
 x_to_yz                           3623 16.4  920.079  933.801  920.079  933.801
 integrate_v_rspace                 426 11.8   16.193   16.446  914.969  915.785
 potential_pw2rs                    426 12.8    1.964    2.039  898.040  898.794
 rs_pw_transfer                    3863 12.8    0.199    0.230  674.954  677.420
 pw_scatter_p                      3623 15.4  511.288  517.347  511.288  517.347
 pw_gather_p                       3640 14.5  465.648  472.568  465.648  472.568
 xc_functional_eval                 639 13.2    0.042    0.060  182.132  416.766
 pbe_lsd_eval                       639 14.2  182.091  416.739  182.091  416.739
 prepare_gapw_den                   213 10.8    9.497   12.657  373.835  375.085
 put_rho0_on_grid                   213 11.8    7.454    9.134  347.323  348.573
 init_scf_loop                       11  7.9    0.001    0.005  323.251  323.252
 qs_ks_update_qs_env_forces          10  6.0    0.000    0.000  297.959  297.960
 qs_ks_ddapc                        213 10.8    0.006    0.008  293.999  295.123
 rs_pw_transfer_PW2RS_150           649 14.1  248.281  250.452  267.034  269.310
 rs_pw_transfer_RS2PW_150           652 13.2  243.219  247.984  243.219  247.984
 pw_derive                         2556 13.3  231.392  234.672  231.392  234.672
 fft_wrap_pw1pw2_50                 854 13.9   16.248   16.715  196.716  204.251
 -------------------------------------------------------------------------------

  **** **** ******  **  PROGRAM ENDED AT                 2013-08-07 03:15:22.808
 ***** ** ***  *** **   PROGRAM RAN ON                                        n1
 **    ****   ******    PROGRAM RAN BY                                       spf
 ***** **    ** ** **   PROGRAM PROCESS ID                                 10546
  **** **  *******  **  PROGRAM STOPPED IN                  /mnt/CalcC/spf/P4O10
