 DBCSR| Multiplication driver                                                SMM
 DBCSR| Multiplication stack size                                           1000
 DBCSR| Multiplication size stacks                                             0
 DBCSR| Use subcommunicators                                                   T
 DBCSR| Use MPI combined types                                                 F
 DBCSR| Use MPI memory allocation                                              T
 DBCSR| Use Communication thread                                               T
 DBCSR| Communication thread load                                            100


  **** **** ******  **  PROGRAM STARTED AT               2013-09-18 11:10:02.994
 ***** ** ***  *** **   PROGRAM STARTED ON                                    n6
 **    ****   ******    PROGRAM STARTED BY                                   spf
 ***** **    ** ** **   PROGRAM PROCESS ID                                 14418
  **** **  *******  **  PROGRAM STARTED IN                   /mnt/CalcC/spf/P4O6

 CP2K| version string:                    CP2K version 2.4 (Development Version)
 CP2K| source code revision number:                                        12836
 CP2K| is freely available from                             http://www.cp2k.org/
 CP2K| Program compiled at                         Mo 15. Apr 13:01:07 CEST 2013
 CP2K| Program compiled on                                                  head
 CP2K| Program compiled for                                     Linux-x86-64-gcc
 CP2K| Input file name                                                  P4O6.inp

 GLOBAL| Force Environment number                                              1
 GLOBAL| Basis set file name                                           BASIS_SET
 GLOBAL| Geminal file name                                         BASIS_GEMINAL
 GLOBAL| Potential file name                                           POTENTIAL
 GLOBAL| MM Potential file name                                     MM_POTENTIAL
 GLOBAL| Coordinate file name                                      __STD_INPUT__
 GLOBAL| Method name                                                        CP2K
 GLOBAL| Project name                                                       P4O6
 GLOBAL| Preferred FFT library                                             FFTW3
 GLOBAL| Run type                                                        GEO_OPT
 GLOBAL| All-to-all communication in single precision                          F
 GLOBAL| FFTs using library dependent lengths                                  F
 GLOBAL| Global print level                                               MEDIUM
 GLOBAL| Total number of message passing processes                             8
 GLOBAL| Number of threads for this process                                    1
 GLOBAL| This output is from process                                           0

 MEMORY| system memory details [Kb]
 MEMORY|                        rank 0           min           max       average
 MEMORY| MemTotal             33018288      33018288      33018288      33018288
 MEMORY| MemFree              23137904      23137904      23137904      23137904
 MEMORY| Buffers                132784        132784        132784        132784
 MEMORY| Cached                8956652       8956652       8956652       8956652
 MEMORY| Slab                   154784        154784        154784        154784
 MEMORY| SReclaimable            92872         92872         92872         92872
 MEMORY| MemLikelyFree        32320212      32320212      32320212      32320212


 *** Fundamental physical constants (SI units) ***

 *** Literature: B. J. Mohr and B. N. Taylor,
 ***             CODATA recommended values of the fundamental physical
 ***             constants: 2006, Web Version 5.1
 ***             http://physics.nist.gov/constants

 Speed of light in vacuum [m/s]                             2.99792458000000E+08
 Magnetic constant or permeability of vacuum [N/A**2]       1.25663706143592E-06
 Electric constant or permittivity of vacuum [F/m]          8.85418781762039E-12
 Planck constant (h) [J*s]                                  6.62606896000000E-34
 Planck constant (h-bar) [J*s]                              1.05457162825177E-34
 Elementary charge [C]                                      1.60217648700000E-19
 Electron mass [kg]                                         9.10938215000000E-31
 Electron g factor [ ]                                     -2.00231930436220E+00
 Proton mass [kg]                                           1.67262163700000E-27
 Fine-structure constant                                    7.29735253760000E-03
 Rydberg constant [1/m]                                     1.09737315685270E+07
 Avogadro constant [1/mol]                                  6.02214179000000E+23
 Boltzmann constant [J/K]                                   1.38065040000000E-23
 Atomic mass unit [kg]                                      1.66053878200000E-27
 Bohr radius [m]                                            5.29177208590000E-11

 *** Conversion factors ***

 [u] -> [a.u.]                                              1.82288848426455E+03
 [Angstrom] -> [Bohr] = [a.u.]                              1.88972613288564E+00
 [a.u.] = [Bohr] -> [Angstrom]                              5.29177208590000E-01
 [a.u.] -> [s]                                              2.41888432650478E-17
 [a.u.] -> [fs]                                             2.41888432650478E-02
 [a.u.] -> [J]                                              4.35974393937059E-18
 [a.u.] -> [K]                                              3.15774647902944E+05
 [a.u.] -> [kJ/mol]                                         2.62549961709828E+03
 [a.u.] -> [kcal/mol]                                       6.27509468713739E+02
 [a.u.] -> [Pa]                                             2.94210107994716E+13
 [a.u.] -> [bar]                                            2.94210107994716E+08
 [a.u.] -> [atm]                                            2.90362800883016E+08
 [a.u.] -> [eV]                                             2.72113838565563E+01
 [a.u.] -> [Hz]                                             6.57968392072181E+15
 [a.u.] -> [1/cm] (wave numbers)                            2.19474631370540E+05
 [a.u./Bohr**2] -> [1/cm]                                   5.14048714338585E+03
 

 PW_GRID: Information for grid number                                          1
 PW_GRID: Cutoff [a.u.]                                                      4.4
 PW_GRID: spherical cutoff:                                                   NO
 PW_GRID:   Bounds   1              0      49                Points:          50
 PW_GRID:   Bounds   2              0      49                Points:          50
 PW_GRID:   Bounds   3              0      49                Points:          50
 PW_GRID: Volume element (a.u.^3)   1.063         Volume (a.u.^3)    132827.4696
 PW_GRID: Grid span                                                    HALFSPACE

 CELL| Volume [angstrom^3]:                                            19683.000
 CELL| Vector a [angstrom]:      27.000     0.000     0.000    |a| =      27.000
 CELL| Vector b [angstrom]:       0.000    27.000     0.000    |b| =      27.000
 CELL| Vector c [angstrom]:       0.000     0.000    27.000    |c| =      27.000
 CELL| Angle (b,c), alpha [degree]:                                       90.000
 CELL| Angle (a,c), beta  [degree]:                                       90.000
 CELL| Angle (a,b), gamma [degree]:                                       90.000
 CELL| Orthorhombic:                                                         YES

 CELL_REF| Volume [angstrom^3]:                                        19683.000
 CELL_REF| Vector a [angstrom    27.000     0.000     0.000    |a| =      27.000
 CELL_REF| Vector b [angstrom     0.000    27.000     0.000    |b| =      27.000
 CELL_REF| Vector c [angstrom     0.000     0.000    27.000    |c| =      27.000
 CELL_REF| Angle (b,c), alpha [degree]:                                   90.000
 CELL_REF| Angle (a,c), beta  [degree]:                                   90.000
 CELL_REF| Angle (a,b), gamma [degree]:                                   90.000
 CELL_REF| Orthorhombic:                                                     YES

 CELL_TOP| Volume [angstrom^3]:                                        19683.000
 CELL_TOP| Vector a [angstrom    27.000     0.000     0.000    |a| =      27.000
 CELL_TOP| Vector b [angstrom     0.000    27.000     0.000    |b| =      27.000
 CELL_TOP| Vector c [angstrom     0.000     0.000    27.000    |c| =      27.000
 CELL_TOP| Angle (b,c), alpha [degree]:                                   90.000
 CELL_TOP| Angle (a,c), beta  [degree]:                                   90.000
 CELL_TOP| Angle (a,b), gamma [degree]:                                   90.000
 CELL_TOP| Orthorhombic:                                                     YES

 GENERATE|  Preliminary Number of Bonds generated:                             0
 GENERATE|  Achieved consistency in connectivity generation.

 *******************************************************************************
 *******************************************************************************
 **                                                                           **
 **     #####                         ##              ##                      **
 **    ##   ##            ##          ##              ##                      **
 **   ##     ##                       ##            ######                    **
 **   ##     ##  ##   ##  ##   #####  ##  ##   ####   ##    #####    #####    **
 **   ##     ##  ##   ##  ##  ##      ## ##   ##      ##   ##   ##  ##   ##   **
 **   ##  ## ##  ##   ##  ##  ##      ####     ###    ##   ######   ######    **
 **    ##  ###   ##   ##  ##  ##      ## ##      ##   ##   ##       ##        **
 **     #######   #####   ##   #####  ##  ##  ####    ##    #####   ##        **
 **           ##                                                    ##        **
 **                                                                           **
 **                                                ... make the atoms dance   **
 **                                                                           **
 **            Copyright (C) by CP2K Developers Group (2000 - 2013)           **
 **                                                                           **
 *******************************************************************************

 DFT| Spin unrestricted (spin-polarized) Kohn-Sham calculation               UKS
 DFT| Multiplicity                                                             1
 DFT| Number of spin states                                                    2
 DFT| Charge                                                                   0
 DFT| Self-interaction correction (SIC)                                       NO
 DFT| Cutoffs: density                                              1.000000E-10
 DFT|          gradient                                             1.000000E-10
 DFT|          tau                                                  1.000000E-10
 DFT|          cutoff_smoothing_range                               0.000000E+00
 DFT| XC density smoothing                                                  NONE
 DFT| XC derivatives                                                          PW
 FUNCTIONAL| ROUTINE=NEW
 FUNCTIONAL| PBE:
 FUNCTIONAL| J.P.Perdew, K.Burke, M.Ernzerhof, Phys. Rev. Letter, vol. 77, n 18,
 FUNCTIONAL|  pp. 3865-3868, (1996){spin polarized}
 vdW POTENTIAL|                                                   Pair Potential
 vdW POTENTIAL|          Potential Form: S. Grimme et al, JCP 132: 154104 (2010)
 vdW POTENTIAL|          Cutoff Radius [Bohr]:                             22.68
 vdW POTENTIAL|          s6 Scaling Factor:                               1.0000
 vdW POTENTIAL|          sr6 Scaling Factor:                              1.2170
 vdW POTENTIAL|          s8 Scaling Factor:                               0.7220
 vdW POTENTIAL|          Cutoff for CN calculation:                   0.1000E-05

 QS| Method:                                                                GAPW
 QS| Density plane wave grid type                        NON-SPHERICAL FULLSPACE
 QS| Number of grid levels:                                                    4
 QS| Density cutoff [a.u.]:                                                150.0
 QS| Multi grid cutoff [a.u.]: 1) grid level                               150.0
 QS|                           2) grid level                                50.0
 QS|                           3) grid level                                16.7
 QS|                           4) grid level                                 5.6
 QS| Grid level progression factor:                                          3.0
 QS| Relative density cutoff [a.u.]:                                        15.0
 QS| Consistent realspace mapping and integration 
 QS| Interaction thresholds: eps_pgf_orb:                                1.0E-05
 QS|                         eps_filter_matrix:                          0.0E+00
 QS|                         eps_core_charge:                            1.0E-12
 QS|                         eps_rho_gspace:                             1.0E-10
 QS|                         eps_rho_rspace:                             1.0E-10
 QS|                         eps_gvg_rspace:                             1.0E-05
 QS|                         eps_ppl:                                    1.0E-02
 QS|                         eps_ppnl:                                   1.0E-07
 QS| GAPW|                   eps_fit:                                    1.0E-04
 QS| GAPW|                   eps_iso:                                    1.0E-12
 QS| GAPW|                   eps_svd:                                    1.0E-08
 QS| GAPW|                   eps_cpc:                                    1.0E-10
 QS| GAPW|   atom-r-grid: quadrature:                 GC_LOG                        
 QS| GAPW|      atom-s-grid:  max l :                                          4
 QS| GAPW|      max_l_rho0 :                                                   2
 QS| GAPW|      At least one kind is NOT PAW, i.e. it has only soft AO 
 QS| GAPW|      The NOT PAW atoms are treated fully GPW


 ATOMIC KIND INFORMATION

  1. Atomic kind: O                                     Number of atoms:       6

     Orbital Basis Set                                           DZVP-MOLOPT-GTH

       Number of orbital shell sets:                                           1
       Number of orbital shells:                                               5
       Number of primitive Cartesian functions:                                7
       Number of Cartesian basis functions:                                   14
       Number of spherical basis functions:                                   13
       Norm type:                                                              2

       Normalised Cartesian orbitals:

                        Set   Shell   Orbital            Exponent    Coefficient

                          1       1    2s               12.015955      -0.284499
                                                         5.108150      -0.322498
                                                         2.048398       0.148191
                                                         0.832382       0.295475
                                                         0.352316       0.150829
                                                         0.142977       0.015788
                                                         0.046761      -0.000019

                          1       2    3s               12.015955       0.725622
                                                         5.108150       0.644384
                                                         2.048398      -0.157350
                                                         0.832382      -0.853528
                                                         0.352316       0.146068
                                                         0.142977       0.153978
                                                         0.046761       0.000658

                          1       3    3px              12.015955       1.192141
                                                         5.108150       1.354170
                                                         2.048398       0.897267
                                                         0.832382       0.408839
                                                         0.352316       0.116648
                                                         0.142977       0.022184
                                                         0.046761       0.000308
                          1       3    3py              12.015955       1.192141
                                                         5.108150       1.354170
                                                         2.048398       0.897267
                                                         0.832382       0.408839
                                                         0.352316       0.116648
                                                         0.142977       0.022184
                                                         0.046761       0.000308
                          1       3    3pz              12.015955       1.192141
                                                         5.108150       1.354170
                                                         2.048398       0.897267
                                                         0.832382       0.408839
                                                         0.352316       0.116648
                                                         0.142977       0.022184
                                                         0.046761       0.000308

                          1       4    4px              12.015955      -1.062381
                                                         5.108150      -1.285791
                                                         2.048398      -0.727000
                                                         0.832382      -0.522764
                                                         0.352316       0.182681
                                                         0.142977       0.087560
                                                         0.046761       0.000981
                          1       4    4py              12.015955      -1.062381
                                                         5.108150      -1.285791
                                                         2.048398      -0.727000
                                                         0.832382      -0.522764
                                                         0.352316       0.182681
                                                         0.142977       0.087560
                                                         0.046761       0.000981
                          1       4    4pz              12.015955      -1.062381
                                                         5.108150      -1.285791
                                                         2.048398      -0.727000
                                                         0.832382      -0.522764
                                                         0.352316       0.182681
                                                         0.142977       0.087560
                                                         0.046761       0.000981

                          1       5    4dx2             12.015955       1.125955
                                                         5.108150       1.160468
                                                         2.048398       0.999335
                                                         0.832382       0.756334
                                                         0.352316       0.048604
                                                         0.142977       0.010378
                                                         0.046761      -0.000027
                          1       5    4dxy             12.015955       1.950212
                                                         5.108150       2.009990
                                                         2.048398       1.730899
                                                         0.832382       1.310009
                                                         0.352316       0.084185
                                                         0.142977       0.017974
                                                         0.046761      -0.000046
                          1       5    4dxz             12.015955       1.950212
                                                         5.108150       2.009990
                                                         2.048398       1.730899
                                                         0.832382       1.310009
                                                         0.352316       0.084185
                                                         0.142977       0.017974
                                                         0.046761      -0.000046
                          1       5    4dy2             12.015955       1.125955
                                                         5.108150       1.160468
                                                         2.048398       0.999335
                                                         0.832382       0.756334
                                                         0.352316       0.048604
                                                         0.142977       0.010378
                                                         0.046761      -0.000027
                          1       5    4dyz             12.015955       1.950212
                                                         5.108150       2.009990
                                                         2.048398       1.730899
                                                         0.832382       1.310009
                                                         0.352316       0.084185
                                                         0.142977       0.017974
                                                         0.046761      -0.000046
                          1       5    4dz2             12.015955       1.125955
                                                         5.108150       1.160468
                                                         2.048398       0.999335
                                                         0.832382       0.756334
                                                         0.352316       0.048604
                                                         0.142977       0.010378
                                                         0.046761      -0.000027

     The atoms of this atomic kind are PAW atoms (GAPW):
       Hard Gaussian function radius:                                      1.512
       Rho0 radius:                                                        1.512
       Maximum GTO radius used for PAW projector construction:            24.566

     GAPW Soft Basis Set                                    DZVP-MOLOPT-GTH_soft

       Number of orbital shell sets:                                           1
       Number of orbital shells:                                               5
       Number of primitive Cartesian functions:                                5
       Number of Cartesian basis functions:                                   14
       Number of spherical basis functions:                                   13
       Norm type:                                                              2

       Normalised Cartesian orbitals:

                        Set   Shell   Orbital            Exponent    Coefficient

                          1       1    2s                2.048398       0.148191
                                                         0.832382       0.295475
                                                         0.352316       0.150829
                                                         0.142977       0.015788
                                                         0.046761      -0.000019

                          1       2    3s                2.048398      -0.157350
                                                         0.832382      -0.853528
                                                         0.352316       0.146068
                                                         0.142977       0.153978
                                                         0.046761       0.000658

                          1       3    3px               2.048398       0.897267
                                                         0.832382       0.408839
                                                         0.352316       0.116648
                                                         0.142977       0.022184
                                                         0.046761       0.000308
                          1       3    3py               2.048398       0.897267
                                                         0.832382       0.408839
                                                         0.352316       0.116648
                                                         0.142977       0.022184
                                                         0.046761       0.000308
                          1       3    3pz               2.048398       0.897267
                                                         0.832382       0.408839
                                                         0.352316       0.116648
                                                         0.142977       0.022184
                                                         0.046761       0.000308

                          1       4    4px               2.048398      -0.727000
                                                         0.832382      -0.522764
                                                         0.352316       0.182681
                                                         0.142977       0.087560
                                                         0.046761       0.000981
                          1       4    4py               2.048398      -0.727000
                                                         0.832382      -0.522764
                                                         0.352316       0.182681
                                                         0.142977       0.087560
                                                         0.046761       0.000981
                          1       4    4pz               2.048398      -0.727000
                                                         0.832382      -0.522764
                                                         0.352316       0.182681
                                                         0.142977       0.087560
                                                         0.046761       0.000981

                          1       5    4dx2              2.048398       0.999335
                                                         0.832382       0.756334
                                                         0.352316       0.048604
                                                         0.142977       0.010378
                                                         0.046761      -0.000027
                          1       5    4dxy              2.048398       1.730899
                                                         0.832382       1.310009
                                                         0.352316       0.084185
                                                         0.142977       0.017974
                                                         0.046761      -0.000046
                          1       5    4dxz              2.048398       1.730899
                                                         0.832382       1.310009
                                                         0.352316       0.084185
                                                         0.142977       0.017974
                                                         0.046761      -0.000046
                          1       5    4dy2              2.048398       0.999335
                                                         0.832382       0.756334
                                                         0.352316       0.048604
                                                         0.142977       0.010378
                                                         0.046761      -0.000027
                          1       5    4dyz              2.048398       1.730899
                                                         0.832382       1.310009
                                                         0.352316       0.084185
                                                         0.142977       0.017974
                                                         0.046761      -0.000046
                          1       5    4dz2              2.048398       0.999335
                                                         0.832382       0.756334
                                                         0.352316       0.048604
                                                         0.142977       0.010378
                                                         0.046761      -0.000027

     Potential information for                                        GTH-PBE-q6

       Description:                       Goedecker-Teter-Hutter pseudopotential
                                           Goedecker et al., PRB 54, 1703 (1996)
                                          Hartwigsen et al., PRB 58, 3641 (1998)
                                                      Krack, TCA 114, 145 (2005)

       Gaussian exponent of the core charge distribution:               8.360253
       Electronic configuration (s p d ...):                               2   4

       Parameters of the local part of the GTH pseudopotential:

                          rloc        C1          C2          C3          C4
                        0.244554  -16.667215    2.487311

       Parameters of the non-local part of the GTH pseudopotential:

                   l      r(l)      h(i,j,l)

                   0    0.220956   18.337458
                   1    0.211332

  2. Atomic kind: P                                     Number of atoms:       4

     Orbital Basis Set                                           DZVP-MOLOPT-GTH

       Number of orbital shell sets:                                           1
       Number of orbital shells:                                               5
       Number of primitive Cartesian functions:                                6
       Number of Cartesian basis functions:                                   14
       Number of spherical basis functions:                                   13
       Norm type:                                                              2

       Normalised Cartesian orbitals:

                        Set   Shell   Orbital            Exponent    Coefficient

                          1       1    2s                3.338153       0.070371
                                                         1.833920      -0.349206
                                                         0.688532      -0.062221
                                                         0.372377       0.229985
                                                         0.166131       0.092364
                                                         0.075778       0.009125

                          1       2    3s                3.338153      -0.201073
                                                         1.833920       0.702194
                                                         0.688532       0.130768
                                                         0.372377      -0.497372
                                                         0.166131       0.102904
                                                         0.075778       0.110045

                          1       3    3px               3.338153      -0.086704
                                                         1.833920      -0.124680
                                                         0.688532       0.120237
                                                         0.372377       0.175425
                                                         0.166131       0.058965
                                                         0.075778       0.011013
                          1       3    3py               3.338153      -0.086704
                                                         1.833920      -0.124680
                                                         0.688532       0.120237
                                                         0.372377       0.175425
                                                         0.166131       0.058965
                                                         0.075778       0.011013
                          1       3    3pz               3.338153      -0.086704
                                                         1.833920      -0.124680
                                                         0.688532       0.120237
                                                         0.372377       0.175425
                                                         0.166131       0.058965
                                                         0.075778       0.011013

                          1       4    4px               3.338153       0.044134
                                                         1.833920       0.416759
                                                         0.688532      -0.362830
                                                         0.372377      -0.135315
                                                         0.166131       0.030855
                                                         0.075778       0.054348
                          1       4    4py               3.338153       0.044134
                                                         1.833920       0.416759
                                                         0.688532      -0.362830
                                                         0.372377      -0.135315
                                                         0.166131       0.030855
                                                         0.075778       0.054348
                          1       4    4pz               3.338153       0.044134
                                                         1.833920       0.416759
                                                         0.688532      -0.362830
                                                         0.372377      -0.135315
                                                         0.166131       0.030855
                                                         0.075778       0.054348

                          1       5    4dx2              3.338153       0.250913
                                                         1.833920       0.524236
                                                         0.688532       0.341345
                                                         0.372377       0.113132
                                                         0.166131       0.017371
                                                         0.075778       0.000431
                          1       5    4dxy              3.338153       0.434593
                                                         1.833920       0.908003
                                                         0.688532       0.591227
                                                         0.372377       0.195951
                                                         0.166131       0.030087
                                                         0.075778       0.000746
                          1       5    4dxz              3.338153       0.434593
                                                         1.833920       0.908003
                                                         0.688532       0.591227
                                                         0.372377       0.195951
                                                         0.166131       0.030087
                                                         0.075778       0.000746
                          1       5    4dy2              3.338153       0.250913
                                                         1.833920       0.524236
                                                         0.688532       0.341345
                                                         0.372377       0.113132
                                                         0.166131       0.017371
                                                         0.075778       0.000431
                          1       5    4dyz              3.338153       0.434593
                                                         1.833920       0.908003
                                                         0.688532       0.591227
                                                         0.372377       0.195951
                                                         0.166131       0.030087
                                                         0.075778       0.000746
                          1       5    4dz2              3.338153       0.250913
                                                         1.833920       0.524236
                                                         0.688532       0.341345
                                                         0.372377       0.113132
                                                         0.166131       0.017371
                                                         0.075778       0.000431

     Potential information for                                        GTH-PBE-q5

       Description:                       Goedecker-Teter-Hutter pseudopotential
                                           Goedecker et al., PRB 54, 1703 (1996)
                                          Hartwigsen et al., PRB 58, 3641 (1998)
                                                      Krack, TCA 114, 145 (2005)

       Gaussian exponent of the core charge distribution:               2.704164
       Electronic configuration (s p d ...):                               2   3

       Parameters of the local part of the GTH pseudopotential:

                          rloc        C1          C2          C3          C4
                        0.430000   -5.875943

       Parameters of the non-local part of the GTH pseudopotential:

                   l      r(l)      h(i,j,l)

                   0    0.396377   11.008862   -3.470356
                                   -3.470356    4.480210
                   1    0.448298    3.056064


 MOLECULE KIND INFORMATION


 All atoms are their own molecule, skipping detailed information


 TOTAL NUMBERS AND MAXIMUM NUMBERS

  Total number of            - Atomic kinds:                                   2
                             - Atoms:                                         10
                             - Shell sets:                                    10
                             - Shells:                                        50
                             - Primitive Cartesian functions:                 66
                             - Cartesian basis functions:                    140
                             - Spherical basis functions:                    130

  Maximum angular momentum of- Orbital basis functions:                        2
                             - Local part of the GTH pseudopotential:          2
                             - Non-local part of the GTH pseudopotential:      2


 MODULE QUICKSTEP:  ATOMIC COORDINATES IN angstrom

  Atom  Kind  Element       X           Y           Z          Z(eff)       Mass

       1     1 O    8   11.853545   14.421205   13.049095      6.00      15.9994
       2     1 O    8   12.649255   11.788815   13.151465      6.00      15.9994
       3     2 P   15   13.380335   14.980945   12.435575      5.00      30.9738
       4     2 P   15   14.243755   12.125135   12.546435      5.00      30.9738
       5     1 O    8   14.068935   13.597525   11.639565      6.00      15.9994
       6     2 P   15   11.839105   13.018205   14.075325      5.00      30.9738
       7     1 O    8   12.944415   13.402235   15.360435      6.00      15.9994
       8     1 O    8   14.364915   15.211185   13.849415      6.00      15.9994
       9     1 O    8   15.160895   12.579425   13.950965      6.00      15.9994
      10     2 P   15   14.564235   13.875775   14.943725      5.00      30.9738




 SCF PARAMETERS         Density guess:                                    ATOMIC
                        --------------------------------------------------------
                        max_scf:                                             200
                        max_scf_history:                                       0
                        max_diis:                                              4
                        --------------------------------------------------------
                        eps_scf:                                        1.00E-07
                        eps_scf_history:                                0.00E+00
                        eps_diis:                                       1.00E-01
                        eps_eigval:                                     1.00E-05
                        --------------------------------------------------------
                        level_shift [a.u.]:                                 0.00
                        --------------------------------------------------------
                        No outer SCF

 PW_GRID: Information for grid number                                          2
 PW_GRID: Grid distributed over                                     8 processors
 PW_GRID: Real space group dimensions                                     8    1
 PW_GRID: the grid is blocked:                                                NO
 PW_GRID: Cutoff [a.u.]                                                    150.0
 PW_GRID: spherical cutoff:                                                   NO
 PW_GRID:   Bounds   1           -144     143                Points:         288
 PW_GRID:   Bounds   2           -144     143                Points:         288
 PW_GRID:   Bounds   3           -144     143                Points:         288
 PW_GRID: Volume element (a.u.^3)  0.5560E-02     Volume (a.u.^3)    132827.4696
 PW_GRID: Grid span                                                    FULLSPACE
 PW_GRID:   Distribution                         Average         Max         Min
 PW_GRID:   G-Vectors                          2985984.0     2985984     2985984
 PW_GRID:   G-Rays                               10368.0       10368       10368
 PW_GRID:   Real Space Points                  2985984.0     2985984     2985984

 PW_GRID: Information for grid number                                          3
 PW_GRID: Grid distributed over                                     8 processors
 PW_GRID: Real space group dimensions                                     8    1
 PW_GRID: the grid is blocked:                                                NO
 PW_GRID: Cutoff [a.u.]                                                     50.0
 PW_GRID: spherical cutoff:                                                   NO
 PW_GRID:   Bounds   1            -90      89                Points:         180
 PW_GRID:   Bounds   2            -90      89                Points:         180
 PW_GRID:   Bounds   3            -90      89                Points:         180
 PW_GRID: Volume element (a.u.^3)  0.2278E-01     Volume (a.u.^3)    132827.4696
 PW_GRID: Grid span                                                    FULLSPACE
 PW_GRID:   Distribution                         Average         Max         Min
 PW_GRID:   G-Vectors                           729000.0      729360      728820
 PW_GRID:   G-Rays                                4050.0        4052        4049
 PW_GRID:   Real Space Points                   729000.0      745200      712800

 PW_GRID: Information for grid number                                          4
 PW_GRID: Grid distributed over                                     8 processors
 PW_GRID: Real space group dimensions                                     8    1
 PW_GRID: the grid is blocked:                                                NO
 PW_GRID: Cutoff [a.u.]                                                     16.7
 PW_GRID: spherical cutoff:                                                   NO
 PW_GRID:   Bounds   1            -48      47                Points:          96
 PW_GRID:   Bounds   2            -48      47                Points:          96
 PW_GRID:   Bounds   3            -48      47                Points:          96
 PW_GRID: Volume element (a.u.^3)  0.1501         Volume (a.u.^3)    132827.4696
 PW_GRID: Grid span                                                    FULLSPACE
 PW_GRID:   Distribution                         Average         Max         Min
 PW_GRID:   G-Vectors                           110592.0      110688      110496
 PW_GRID:   G-Rays                                1152.0        1153        1151
 PW_GRID:   Real Space Points                   110592.0      110592      110592

 PW_GRID: Information for grid number                                          5
 PW_GRID: Grid distributed over                                     8 processors
 PW_GRID: Real space group dimensions                                     8    1
 PW_GRID: the grid is blocked:                                                NO
 PW_GRID: Cutoff [a.u.]                                                      5.6
 PW_GRID: spherical cutoff:                                                   NO
 PW_GRID:   Bounds   1            -30      29                Points:          60
 PW_GRID:   Bounds   2            -30      29                Points:          60
 PW_GRID:   Bounds   3            -30      29                Points:          60
 PW_GRID: Volume element (a.u.^3)  0.6149         Volume (a.u.^3)    132827.4696
 PW_GRID: Grid span                                                    FULLSPACE
 PW_GRID:   Distribution                         Average         Max         Min
 PW_GRID:   G-Vectors                            27000.0       27120       26940
 PW_GRID:   G-Rays                                 450.0         452         449
 PW_GRID:   Real Space Points                    27000.0       28800       25200

 RS_GRID: Information for grid number                                          2
 RS_GRID:   Bounds   1           -144     143                Points:         288
 RS_GRID:   Bounds   2           -144     143                Points:         288
 RS_GRID:   Bounds   3           -144     143                Points:         288
 RS_GRID: Real space distribution over                                  2 groups
 RS_GRID: Real space distribution along direction                              2
 RS_GRID: Border size                                                         19
 RS_GRID: Real space distribution over                                  4 groups
 RS_GRID: Real space distribution along direction                              3
 RS_GRID: Border size                                                         19
 RS_GRID:   Distribution                         Average         Max         Min
 RS_GRID:   Planes                                 182.0         182         182
 RS_GRID:   Distribution                         Average         Max         Min
 RS_GRID:   Planes                                 110.0         110         110

 RS_GRID: Information for grid number                                          3
 RS_GRID:   Bounds   1            -90      89                Points:         180
 RS_GRID:   Bounds   2            -90      89                Points:         180
 RS_GRID:   Bounds   3            -90      89                Points:         180
 RS_GRID: Real space distribution over                                  2 groups
 RS_GRID: Real space distribution along direction                              2
 RS_GRID: Border size                                                         19
 RS_GRID: Real space distribution over                                  4 groups
 RS_GRID: Real space distribution along direction                              3
 RS_GRID: Border size                                                         19
 RS_GRID:   Distribution                         Average         Max         Min
 RS_GRID:   Planes                                 128.0         128         128
 RS_GRID:   Distribution                         Average         Max         Min
 RS_GRID:   Planes                                  83.0          83          83

 RS_GRID: Information for grid number                                          4
 RS_GRID:   Bounds   1            -48      47                Points:          96
 RS_GRID:   Bounds   2            -48      47                Points:          96
 RS_GRID:   Bounds   3            -48      47                Points:          96
 RS_GRID: Real space fully replicated
 RS_GRID: Group size                                                           1

 RS_GRID: Information for grid number                                          5
 RS_GRID:   Bounds   1            -30      29                Points:          60
 RS_GRID:   Bounds   2            -30      29                Points:          60
 RS_GRID:   Bounds   3            -30      29                Points:          60
 RS_GRID: Real space fully replicated
 RS_GRID: Group size                                                           1

 DISTRIBUTION OF THE PARTICLES (ROWS)
              Process row      Number of particles         Number of matrix rows
                        0                        5                            -1
                        1                        5                            -1
                      Sum                       10                            -1

 DISTRIBUTION OF THE PARTICLES (COLUMNS)
              Process col      Number of particles      Number of matrix columns
                        0                        2                            -1
                        1                        3                            -1
                        2                        2                            -1
                        3                        3                            -1
                      Sum                       10                            -1

 *******************************************************************************
 ***                     STARTING GEOMETRY OPTIMIZATION                      ***
 ***                                   BFGS                                  ***
 *******************************************************************************

 DISTRIBUTION OF THE NEIGHBOR LISTS
              Total number of particle pairs:                                 55
              Total number of matrix elements:                              9295
              Average number of particle pairs:                                7
              Maximum number of particle pairs:                               10
              Average number of matrix element:                             1162
              Maximum number of matrix elements:                            1690


 DISTRIBUTION OF THE OVERLAP MATRIX
              Number  of non-zero blocks:                                     55
              Percentage non-zero blocks:                                 100.00
              Average number of blocks per CPU:                                7
              Maximum number of blocks per CPU:                               10
              Average number of matrix elements per CPU:                    1162
              Maximum number of matrix elements per CPU:                    1690

 Spin 1

 Number of electrons:                                                         28
 Number of occupied orbitals:                                                 28
 Number of molecular orbitals:                                                28

 Spin 2

 Number of electrons:                                                         28
 Number of occupied orbitals:                                                 28
 Number of molecular orbitals:                                                28

 Number of orbital functions:                                                130
 Number of independent orbital functions:                                    130

 Extrapolation method: initial_guess

 Atomic guess: The first density matrix is obtained in terms of atomic orbitals
               and electronic configurations assigned to each atomic kind

 Spin 1

 Guess for atomic kind: O

 Electronic structure
    Total number of core electrons                                          2.00
    Total number of valence electrons                                       6.00
    Total number of electrons                                               8.00
    Multiplicity                                                   not specified
    S   [  2.00] 2.00
    P      4.00


 *******************************************************************************
                  Iteration          Convergence                     Energy [au]
 *******************************************************************************
                          1         1.59807                     -14.860601438858
                          2         2.10429                     -14.911792617606
                          3        0.907503E-01                 -15.655516752884
                          4        0.288621E-02                 -15.656865750737
                          5        0.119119E-02                 -15.656866873291
                          6        0.740468E-03                 -15.656867014560
                          7        0.292240E-04                 -15.656867103307
                          8        0.185245E-06                 -15.656867103452

 Energy components [Hartree]           Total Energy ::          -15.656867103452
                                        Band Energy ::           -3.000198979664
                                     Kinetic Energy ::           11.759972915296
                                   Potential Energy ::          -27.416840018748
                                      Virial (-V/T) ::            2.331369316598
                                        Core Energy ::          -26.140717222249
                                          XC Energy ::           -3.154051243207
                                     Coulomb Energy ::           13.637901362004
                       Total Pseudopotential Energy ::          -37.935784258805
                       Local Pseudopotential Energy ::          -39.218909979177
                    Nonlocal Pseudopotential Energy ::            1.283125720372
                                        Confinement ::            0.350941212594

 Orbital energies  State     L     Occupation   Energy[a.u.]          Energy[eV]

                       1     0          2.000      -0.864472          -23.523467

                       1     1          4.000      -0.317814           -8.648158


 Guess for atomic kind: P

 Electronic structure
    Total number of core electrons                                         10.00
    Total number of valence electrons                                       5.00
    Total number of electrons                                              15.00
    Multiplicity                                                   not specified
    S   [  2.00  2.00] 2.00
    P   [  6.00] 3.00


 *******************************************************************************
                  Iteration          Convergence                     Energy [au]
 *******************************************************************************
                          1        0.572653                      -6.064250527461
                          2        0.280008                      -6.257223105200
                          3        0.483453E-02                  -6.297142776629
                          4        0.180297E-03                  -6.297154042919
                          5        0.997046E-04                  -6.297154053613
                          6        0.694860E-04                  -6.297154056036
                          7        0.406115E-06                  -6.297154058324

 Energy components [Hartree]           Total Energy ::           -6.297154058324
                                        Band Energy ::           -1.506731195312
                                     Kinetic Energy ::            2.371946416890
                                   Potential Energy ::           -8.669100475214
                                      Virial (-V/T) ::            3.654846675069
                                        Core Energy ::          -10.073066291116
                                          XC Energy ::           -1.458874787557
                                     Coulomb Energy ::            5.234787020350
                       Total Pseudopotential Energy ::          -12.505480874250
                       Local Pseudopotential Energy ::          -13.856216849132
                    Nonlocal Pseudopotential Energy ::            1.350735974882
                                        Confinement ::            0.604681662434

 Orbital energies  State     L     Occupation   Energy[a.u.]          Energy[eV]

                       1     0          2.000      -0.488209          -13.284849

                       1     1          3.000      -0.176771           -4.810181

 Re-scaling the density matrix to get the right number of electrons for spin 1
                  # Electrons              Trace(P)               Scaling factor
                           28                28.000                        1.000

 Spin 2

 Guess for atomic kind: O

 Electronic structure
    Total number of core electrons                                          2.00
    Total number of valence electrons                                       6.00
    Total number of electrons                                               8.00
    Multiplicity                                                   not specified
    S   [  2.00] 2.00
    P      4.00


 *******************************************************************************
                  Iteration          Convergence                     Energy [au]
 *******************************************************************************
                          1         1.59807                     -14.860601438858
                          2         2.10429                     -14.911792617606
                          3        0.907503E-01                 -15.655516752884
                          4        0.288621E-02                 -15.656865750737
                          5        0.119119E-02                 -15.656866873291
                          6        0.740468E-03                 -15.656867014560
                          7        0.292240E-04                 -15.656867103307
                          8        0.185245E-06                 -15.656867103452

 Energy components [Hartree]           Total Energy ::          -15.656867103452
                                        Band Energy ::           -3.000198979664
                                     Kinetic Energy ::           11.759972915296
                                   Potential Energy ::          -27.416840018748
                                      Virial (-V/T) ::            2.331369316598
                                        Core Energy ::          -26.140717222249
                                          XC Energy ::           -3.154051243207
                                     Coulomb Energy ::           13.637901362004
                       Total Pseudopotential Energy ::          -37.935784258805
                       Local Pseudopotential Energy ::          -39.218909979177
                    Nonlocal Pseudopotential Energy ::            1.283125720372
                                        Confinement ::            0.350941212594

 Orbital energies  State     L     Occupation   Energy[a.u.]          Energy[eV]

                       1     0          2.000      -0.864472          -23.523467

                       1     1          4.000      -0.317814           -8.648158


 Guess for atomic kind: P

 Electronic structure
    Total number of core electrons                                         10.00
    Total number of valence electrons                                       5.00
    Total number of electrons                                              15.00
    Multiplicity                                                   not specified
    S   [  2.00  2.00] 2.00
    P   [  6.00] 3.00


 *******************************************************************************
                  Iteration          Convergence                     Energy [au]
 *******************************************************************************
                          1        0.572653                      -6.064250527461
                          2        0.280008                      -6.257223105200
                          3        0.483453E-02                  -6.297142776629
                          4        0.180297E-03                  -6.297154042919
                          5        0.997046E-04                  -6.297154053613
                          6        0.694860E-04                  -6.297154056036
                          7        0.406115E-06                  -6.297154058324

 Energy components [Hartree]           Total Energy ::           -6.297154058324
                                        Band Energy ::           -1.506731195312
                                     Kinetic Energy ::            2.371946416890
                                   Potential Energy ::           -8.669100475214
                                      Virial (-V/T) ::            3.654846675069
                                        Core Energy ::          -10.073066291116
                                          XC Energy ::           -1.458874787557
                                     Coulomb Energy ::            5.234787020350
                       Total Pseudopotential Energy ::          -12.505480874250
                       Local Pseudopotential Energy ::          -13.856216849132
                    Nonlocal Pseudopotential Energy ::            1.350735974882
                                        Confinement ::            0.604681662434

 Orbital energies  State     L     Occupation   Energy[a.u.]          Energy[eV]

                       1     0          2.000      -0.488209          -13.284849

                       1     1          3.000      -0.176771           -4.810181

 Re-scaling the density matrix to get the right number of electrons for spin 2
                  # Electrons              Trace(P)               Scaling factor
                           28                28.000                        1.000


 SCF WAVEFUNCTION OPTIMIZATION

  ----------------------------------- OT ---------------------------------------

  Allowing for rotations:  F
  Optimizing orbital energies:  F
  Minimizer      : DIIS                : direct inversion
                                         in the iterative subspace
                            using      : -   7 DIIS vectors
                                         - safer DIIS on
  Preconditioner : FULL_ALL            : diagonalization, state selective
  Precond_solver : DEFAULT
  stepsize       :    0.15000000
  energy_gap     :    0.20000000

  eps_taylor     :   0.10000E-15
  max_taylor     :             4

  mixed_precision    : F

  ----------------------------------- OT ---------------------------------------

  Step     Update method      Time    Convergence         Total energy    Change
  ------------------------------------------------------------------------------

  Trace(PS):                                   56.0000000000
  Electronic density on regular grids:        -53.7749003303        2.2250996697
  Core density on regular grids:               19.9999999973      -36.0000000027
  Hard and soft densities (Lebedev):         -205.4454749895     -203.2203755825
  Total Rho_soft + Rho1_hard - Rho1_soft      -55.9999997372
  Total charge density (r-space):             -35.9999997399
  Total Rho_soft + Rho0_soft (g-space):        -0.0000000849

  Decoupling Energy:                                               0.0002300285
     1 OT DIIS     0.15E+00   31.3     0.05961259      -118.0740934156 -1.18E+02

  Trace(PS):                                   56.0000000000
  Electronic density on regular grids:        -53.7269991102        2.2730008898
  Core density on regular grids:               19.9999999973      -36.0000000027
  Hard and soft densities (Lebedev):         -188.3739301802     -186.1009296019
  Total Rho_soft + Rho1_hard - Rho1_soft      -55.9999996884
  Total charge density (r-space):             -35.9999996911
  Total Rho_soft + Rho0_soft (g-space):        -0.0000000357

  Decoupling Energy:                                               0.0005261952
     2 OT DIIS     0.15E+00   38.1     0.06276149      -119.7861668174 -1.71E+00

  Trace(PS):                                   56.0000000000
  Electronic density on regular grids:        -53.8653967785        2.1346032215
  Core density on regular grids:               19.9999999973      -36.0000000027
  Hard and soft densities (Lebedev):         -177.6337344208     -175.4991315087
  Total Rho_soft + Rho1_hard - Rho1_soft      -55.9999996906
  Total charge density (r-space):             -35.9999996933
  Total Rho_soft + Rho0_soft (g-space):        -0.0000000397

  Decoupling Energy:                                               0.0000311586
     3 OT DIIS     0.15E+00   38.4     0.02998776      -120.9956003563 -1.21E+00

  Trace(PS):                                   56.0000000000
  Electronic density on regular grids:        -54.1115331240        1.8884668760
  Core density on regular grids:               19.9999999973      -36.0000000027
  Hard and soft densities (Lebedev):         -169.4741104147     -167.5856438578
  Total Rho_soft + Rho1_hard - Rho1_soft      -55.9999996809
  Total charge density (r-space):             -35.9999996836
  Total Rho_soft + Rho0_soft (g-space):        -0.0000000327

  Decoupling Energy:                                               0.0000133489
     4 OT DIIS     0.15E+00   38.2     0.01899762      -121.9349720883 -9.39E-01

  Trace(PS):                                   56.0000000000
  Electronic density on regular grids:        -54.1376660452        1.8623339548
  Core density on regular grids:               19.9999999973      -36.0000000027
  Hard and soft densities (Lebedev):         -163.1089928349     -161.2466592102
  Total Rho_soft + Rho1_hard - Rho1_soft      -55.9999996699
  Total charge density (r-space):             -35.9999996726
  Total Rho_soft + Rho0_soft (g-space):        -0.0000000220

  Decoupling Energy:                                              -0.0000027115
     5 OT DIIS     0.15E+00   38.5     0.01297319      -122.2831078481 -3.48E-01

  Trace(PS):                                   56.0000000000
  Electronic density on regular grids:        -54.1386321340        1.8613678660
  Core density on regular grids:               19.9999999973      -36.0000000027
  Hard and soft densities (Lebedev):         -159.2316918528     -157.3703243256
  Total Rho_soft + Rho1_hard - Rho1_soft      -55.9999996612
  Total charge density (r-space):             -35.9999996639
  Total Rho_soft + Rho0_soft (g-space):        -0.0000000133

  Decoupling Energy:                                              -0.0000028351
     6 OT DIIS     0.15E+00   38.3     0.00899886      -122.4675502012 -1.84E-01

  Trace(PS):                                   56.0000000000
  Electronic density on regular grids:        -54.1768198400        1.8231801600
  Core density on regular grids:               19.9999999973      -36.0000000027
  Hard and soft densities (Lebedev):         -159.4860461667     -157.6628663566
  Total Rho_soft + Rho1_hard - Rho1_soft      -55.9999996502
  Total charge density (r-space):             -35.9999996529
  Total Rho_soft + Rho0_soft (g-space):        -0.0000000027

  Decoupling Energy:                                              -0.0000047822
     7 OT DIIS     0.15E+00   38.4     0.00457797      -122.5842990337 -1.17E-01

  Trace(PS):                                   56.0000000000
  Electronic density on regular grids:        -54.1844477113        1.8155522887
  Core density on regular grids:               19.9999999973      -36.0000000027
  Hard and soft densities (Lebedev):         -159.6138036539     -157.7982517143
  Total Rho_soft + Rho1_hard - Rho1_soft      -55.9999996508
  Total charge density (r-space):             -35.9999996535
  Total Rho_soft + Rho0_soft (g-space):        -0.0000000034

  Decoupling Energy:                                              -0.0000045612
     8 OT DIIS     0.15E+00   38.4     0.00328040      -122.6091948889 -2.49E-02

  Trace(PS):                                   56.0000000000
  Electronic density on regular grids:        -54.1899147235        1.8100852765
  Core density on regular grids:               19.9999999973      -36.0000000027
  Hard and soft densities (Lebedev):         -160.0220292403     -158.2119443148
  Total Rho_soft + Rho1_hard - Rho1_soft      -55.9999996489
  Total charge density (r-space):             -35.9999996516
  Total Rho_soft + Rho0_soft (g-space):        -0.0000000015

  Decoupling Energy:                                              -0.0000049552
     9 OT DIIS     0.15E+00   38.5     0.00182242      -122.6303651104 -2.12E-02

  Trace(PS):                                   56.0000000000
  Electronic density on regular grids:        -54.1945316634        1.8054683366
  Core density on regular grids:               19.9999999973      -36.0000000027
  Hard and soft densities (Lebedev):         -160.2386075489     -158.4331395626
  Total Rho_soft + Rho1_hard - Rho1_soft      -55.9999996497
  Total charge density (r-space):             -35.9999996524
  Total Rho_soft + Rho0_soft (g-space):        -0.0000000023

  Decoupling Energy:                                              -0.0000049787
    10 OT DIIS     0.15E+00   38.3     0.00122221      -122.6357551343 -5.39E-03

  Trace(PS):                                   56.0000000000
  Electronic density on regular grids:        -54.1942506540        1.8057493460
  Core density on regular grids:               19.9999999973      -36.0000000027
  Hard and soft densities (Lebedev):         -160.2080022754     -158.4022532784
  Total Rho_soft + Rho1_hard - Rho1_soft      -55.9999996510
  Total charge density (r-space):             -35.9999996537
  Total Rho_soft + Rho0_soft (g-space):        -0.0000000036

  Decoupling Energy:                                              -0.0000050233
    11 OT DIIS     0.15E+00   38.5     0.00085243      -122.6389990826 -3.24E-03

  Trace(PS):                                   56.0000000000
  Electronic density on regular grids:        -54.1960509888        1.8039490112
  Core density on regular grids:               19.9999999973      -36.0000000027
  Hard and soft densities (Lebedev):         -160.3503758236     -158.5464271608
  Total Rho_soft + Rho1_hard - Rho1_soft      -55.9999996515
  Total charge density (r-space):             -35.9999996542
  Total Rho_soft + Rho0_soft (g-space):        -0.0000000042

  Decoupling Energy:                                              -0.0000051146
    12 OT DIIS     0.15E+00   38.5     0.00062233      -122.6405275166 -1.53E-03

  Trace(PS):                                   56.0000000000
  Electronic density on regular grids:        -54.1955734569        1.8044265431
  Core density on regular grids:               19.9999999973      -36.0000000027
  Hard and soft densities (Lebedev):         -160.3517045369     -158.5472783420
  Total Rho_soft + Rho1_hard - Rho1_soft      -55.9999996519
  Total charge density (r-space):             -35.9999996546
  Total Rho_soft + Rho0_soft (g-space):        -0.0000000045

  Decoupling Energy:                                              -0.0000051611
    13 OT DIIS     0.15E+00   38.6     0.00048283      -122.6415169965 -9.89E-04

  Trace(PS):                                   56.0000000000
  Electronic density on regular grids:        -54.1954923237        1.8045076763
  Core density on regular grids:               19.9999999973      -36.0000000027
  Hard and soft densities (Lebedev):         -160.3673282812     -158.5628209531
  Total Rho_soft + Rho1_hard - Rho1_soft      -55.9999996517
  Total charge density (r-space):             -35.9999996544
  Total Rho_soft + Rho0_soft (g-space):        -0.0000000043

  Decoupling Energy:                                              -0.0000051944
    14 OT DIIS     0.15E+00   38.2     0.00037732      -122.6422005418 -6.84E-04

  Trace(PS):                                   56.0000000000
  Electronic density on regular grids:        -54.1952663774        1.8047336226
  Core density on regular grids:               19.9999999973      -36.0000000027
  Hard and soft densities (Lebedev):         -160.3796646077     -158.5749313339
  Total Rho_soft + Rho1_hard - Rho1_soft      -55.9999996513
  Total charge density (r-space):             -35.9999996540
  Total Rho_soft + Rho0_soft (g-space):        -0.0000000039

  Decoupling Energy:                                              -0.0000052164
    15 OT DIIS     0.15E+00   38.5     0.00029402      -122.6427133500 -5.13E-04

  Trace(PS):                                   56.0000000000
  Electronic density on regular grids:        -54.1949512074        1.8050487926
  Core density on regular grids:               19.9999999973      -36.0000000027
  Hard and soft densities (Lebedev):         -160.3634950422     -158.5584465988
  Total Rho_soft + Rho1_hard - Rho1_soft      -55.9999996508
  Total charge density (r-space):             -35.9999996534
  Total Rho_soft + Rho0_soft (g-space):        -0.0000000033

  Decoupling Energy:                                              -0.0000052341
    16 OT DIIS     0.15E+00   38.2     0.00021900      -122.6430912025 -3.78E-04

  Trace(PS):                                   56.0000000000
  Electronic density on regular grids:        -54.1947347859        1.8052652141
  Core density on regular grids:               19.9999999973      -36.0000000027
  Hard and soft densities (Lebedev):         -160.3438388080     -158.5385739434
  Total Rho_soft + Rho1_hard - Rho1_soft      -55.9999996505
  Total charge density (r-space):             -35.9999996532
  Total Rho_soft + Rho0_soft (g-space):        -0.0000000031

  Decoupling Energy:                                              -0.0000052460
    17 OT DIIS     0.15E+00   38.4     0.00017139      -122.6432870483 -1.96E-04

  Trace(PS):                                   56.0000000000
  Electronic density on regular grids:        -54.1946383072        1.8053616928
  Core density on regular grids:               19.9999999973      -36.0000000027
  Hard and soft densities (Lebedev):         -160.3241854244     -158.5188240813
  Total Rho_soft + Rho1_hard - Rho1_soft      -55.9999996504
  Total charge density (r-space):             -35.9999996531
  Total Rho_soft + Rho0_soft (g-space):        -0.0000000030

  Decoupling Energy:                                              -0.0000052487
    18 OT DIIS     0.15E+00   38.5     0.00013502      -122.6434045924 -1.18E-04

  Trace(PS):                                   56.0000000000
  Electronic density on regular grids:        -54.1945148917        1.8054851083
  Core density on regular grids:               19.9999999973      -36.0000000027
  Hard and soft densities (Lebedev):         -160.3098420402     -158.5043572815
  Total Rho_soft + Rho1_hard - Rho1_soft      -55.9999996504
  Total charge density (r-space):             -35.9999996531
  Total Rho_soft + Rho0_soft (g-space):        -0.0000000030

  Decoupling Energy:                                              -0.0000052525
    19 OT DIIS     0.15E+00   38.3     0.00010541      -122.6434863540 -8.18E-05

  Trace(PS):                                   56.0000000000
  Electronic density on regular grids:        -54.1944384805        1.8055615195
  Core density on regular grids:               19.9999999973      -36.0000000027
  Hard and soft densities (Lebedev):         -160.3031061664     -158.4975449965
  Total Rho_soft + Rho1_hard - Rho1_soft      -55.9999996504
  Total charge density (r-space):             -35.9999996531
  Total Rho_soft + Rho0_soft (g-space):        -0.0000000030

  Decoupling Energy:                                              -0.0000052526
    20 OT DIIS     0.15E+00   38.4     0.00008658      -122.6435310102 -4.47E-05

  Trace(PS):                                   56.0000000000
  Electronic density on regular grids:        -54.1943754983        1.8056245017
  Core density on regular grids:               19.9999999973      -36.0000000027
  Hard and soft densities (Lebedev):         -160.3014236843     -158.4957995321
  Total Rho_soft + Rho1_hard - Rho1_soft      -55.9999996504
  Total charge density (r-space):             -35.9999996531
  Total Rho_soft + Rho0_soft (g-space):        -0.0000000030

  Decoupling Energy:                                              -0.0000052524
    21 OT DIIS     0.15E+00   38.4     0.00007144      -122.6435596535 -2.86E-05

  Trace(PS):                                   56.0000000000
  Electronic density on regular grids:        -54.1942415173        1.8057584827
  Core density on regular grids:               19.9999999973      -36.0000000027
  Hard and soft densities (Lebedev):         -160.2969747341     -158.4912166009
  Total Rho_soft + Rho1_hard - Rho1_soft      -55.9999996505
  Total charge density (r-space):             -35.9999996532
  Total Rho_soft + Rho0_soft (g-space):        -0.0000000031

  Decoupling Energy:                                              -0.0000052523
    22 OT DIIS     0.15E+00   38.5     0.00005220      -122.6435871135 -2.75E-05

  Trace(PS):                                   56.0000000000
  Electronic density on regular grids:        -54.1941559685        1.8058440315
  Core density on regular grids:               19.9999999973      -36.0000000027
  Hard and soft densities (Lebedev):         -160.2978806552     -158.4920369733
  Total Rho_soft + Rho1_hard - Rho1_soft      -55.9999996505
  Total charge density (r-space):             -35.9999996532
  Total Rho_soft + Rho0_soft (g-space):        -0.0000000031

  Decoupling Energy:                                              -0.0000052518
    23 OT DIIS     0.15E+00   38.4     0.00003853      -122.6436007795 -1.37E-05

  Trace(PS):                                   56.0000000000
[...]


 DISTRIBUTION OF THE OVERLAP MATRIX
              Number  of non-zero blocks:                                     55
              Percentage non-zero blocks:                                 100.00
              Average number of blocks per CPU:                                7
              Maximum number of blocks per CPU:                               10
              Average number of matrix elements per CPU:                    1162
              Maximum number of matrix elements per CPU:                    1690

 Spin 1

 Number of electrons:                                                         28
 Number of occupied orbitals:                                                 28
 Number of molecular orbitals:                                                28

 Spin 2

 Number of electrons:                                                         28
 Number of occupied orbitals:                                                 28
 Number of molecular orbitals:                                                28

 Number of orbital functions:                                                130
 Number of independent orbital functions:                                    130

 Extrapolation method: PS Nth order


 SCF WAVEFUNCTION OPTIMIZATION

  ----------------------------------- OT ---------------------------------------

  Allowing for rotations:  F
  Optimizing orbital energies:  F
  Minimizer      : DIIS                : direct inversion
                                         in the iterative subspace
                            using      : -   7 DIIS vectors
                                         - safer DIIS on
  Preconditioner : FULL_ALL            : diagonalization, state selective
  Precond_solver : DEFAULT
  stepsize       :    0.15000000
  energy_gap     :    0.20000000

  eps_taylor     :   0.10000E-15
  max_taylor     :             4

  mixed_precision    : F

  ----------------------------------- OT ---------------------------------------

  Step     Update method      Time    Convergence         Total energy    Change
  ------------------------------------------------------------------------------

  Trace(PS):                                   56.0000000000
  Electronic density on regular grids:        -54.0996328129        1.9003671871
  Core density on regular grids:               19.9999999973      -36.0000000027
  Hard and soft densities (Lebedev):         -175.8803804683     -173.9800145216
  Total Rho_soft + Rho1_hard - Rho1_soft      -55.9999987597
  Total charge density (r-space):             -35.9999987624
  Total Rho_soft + Rho0_soft (g-space):         0.0000008985

  Decoupling Energy:                                              -0.0000022748
     1 OT DIIS     0.15E+00   31.1     0.00138146      -122.6782609433 -1.23E+02

  Trace(PS):                                   56.0000000000
  Electronic density on regular grids:        -54.0853908650        1.9146091350
  Core density on regular grids:               19.9999999973      -36.0000000027
  Hard and soft densities (Lebedev):         -175.5439961535     -173.6293882601
  Total Rho_soft + Rho1_hard - Rho1_soft      -55.9999987585
  Total charge density (r-space):             -35.9999987612
  Total Rho_soft + Rho0_soft (g-space):         0.0000008998

  Decoupling Energy:                                              -0.0000022549
     2 OT DIIS     0.15E+00   38.5     0.00090260      -122.6799593017 -1.70E-03

  Trace(PS):                                   56.0000000000
  Electronic density on regular grids:        -54.0721735966        1.9278264034
  Core density on regular grids:               19.9999999973      -36.0000000027
  Hard and soft densities (Lebedev):         -175.3453048335     -173.4174796732
  Total Rho_soft + Rho1_hard - Rho1_soft      -55.9999987569
  Total charge density (r-space):             -35.9999987596
  Total Rho_soft + Rho0_soft (g-space):         0.0000009015

  Decoupling Energy:                                              -0.0000021558
     3 OT DIIS     0.15E+00   38.2     0.00029301      -122.6812501977 -1.29E-03

  Trace(PS):                                   56.0000000000
  Electronic density on regular grids:        -54.0679847291        1.9320152709
  Core density on regular grids:               19.9999999973      -36.0000000027
  Hard and soft densities (Lebedev):         -175.3466075778     -173.4145935509
  Total Rho_soft + Rho1_hard - Rho1_soft      -55.9999987561
  Total charge density (r-space):             -35.9999987588
  Total Rho_soft + Rho0_soft (g-space):         0.0000009024

  Decoupling Energy:                                              -0.0000021096
     4 OT DIIS     0.15E+00   38.4     0.00004803      -122.6813992195 -1.49E-04

  Trace(PS):                                   56.0000000000
  Electronic density on regular grids:        -54.0678444021        1.9321555979
  Core density on regular grids:               19.9999999973      -36.0000000027
  Hard and soft densities (Lebedev):         -175.3752510762     -173.4430967226
  Total Rho_soft + Rho1_hard - Rho1_soft      -55.9999987558
  Total charge density (r-space):             -35.9999987585
  Total Rho_soft + Rho0_soft (g-space):         0.0000009027

  Decoupling Energy:                                              -0.0000021173
     5 OT DIIS     0.15E+00   38.4     0.00001639      -122.6814020744 -2.85E-06

  Trace(PS):                                   56.0000000000
  Electronic density on regular grids:        -54.0678139673        1.9321860327
  Core density on regular grids:               19.9999999973      -36.0000000027
  Hard and soft densities (Lebedev):         -175.3929631462     -173.4607783579
  Total Rho_soft + Rho1_hard - Rho1_soft      -55.9999987556
  Total charge density (r-space):             -35.9999987583
  Total Rho_soft + Rho0_soft (g-space):         0.0000009029

  Decoupling Energy:                                              -0.0000021222
     6 OT DIIS     0.15E+00   38.2     0.00000416      -122.6814024413 -3.67E-07

  Trace(PS):                                   56.0000000000
  Electronic density on regular grids:        -54.0678272454        1.9321727546
  Core density on regular grids:               19.9999999973      -36.0000000027
  Hard and soft densities (Lebedev):         -175.3982495182     -173.4660780080
  Total Rho_soft + Rho1_hard - Rho1_soft      -55.9999987556
  Total charge density (r-space):             -35.9999987583
  Total Rho_soft + Rho0_soft (g-space):         0.0000009029

  Decoupling Energy:                                              -0.0000021234
     7 OT DIIS     0.15E+00   38.4     0.00000114      -122.6814024634 -2.21E-08

  Trace(PS):                                   56.0000000000
  Electronic density on regular grids:        -54.0678217775        1.9321782225
  Core density on regular grids:               19.9999999973      -36.0000000027
  Hard and soft densities (Lebedev):         -175.3963958904     -173.4642189123
  Total Rho_soft + Rho1_hard - Rho1_soft      -55.9999987556
  Total charge density (r-space):             -35.9999987583
  Total Rho_soft + Rho0_soft (g-space):         0.0000009029

  Decoupling Energy:                                              -0.0000021234
     8 OT DIIS     0.15E+00   38.4     0.00000018      -122.6814024655 -2.10E-09

  Trace(PS):                                   56.0000000000
  Electronic density on regular grids:        -54.0678216978        1.9321783022
  Core density on regular grids:               19.9999999973      -36.0000000027
  Hard and soft densities (Lebedev):         -175.3964510458     -173.4642739881
  Total Rho_soft + Rho1_hard - Rho1_soft      -55.9999987556
  Total charge density (r-space):             -35.9999987583
  Total Rho_soft + Rho0_soft (g-space):         0.0000009029

  Decoupling Energy:                                              -0.0000021234
     9 OT DIIS     0.15E+00   38.3     0.00000007      -122.6814024655 -3.52E-11

  *** SCF run converged in     9 steps ***


  Electronic density on regular grids:        -54.0678216978        1.9321783022
  Core density on regular grids:               19.9999999973      -36.0000000027
  Hard and soft densities (Lebedev):         -175.3964510458     -173.4642739881
  Total Rho_soft + Rho1_hard - Rho1_soft      -55.9999987556
  Total charge density (r-space):             -35.9999987583
  Total Rho_soft + Rho0_soft (g-space):         0.0000009029

  Overlap energy of the core charge distribution:               0.00000001704005
  Self energy of the core charge distribution:               -314.76068242140678
  Core Hamiltonian energy:                                     86.07419087292539
  Hartree energy:                                             103.76321465329953
  Exchange-correlation energy:                                -26.03478896841814
  Dispersion energy:                                           -0.00563078405280

  GAPW| Exc from hard and soft atomic rho1:                    -1.95115412641026
  GAPW| local Eh = 1 center integrals:                         30.23344829151524

  Total energy:                                              -122.68140246550776

  Integrated absolute spin density  :                               0.0000000000
  Ideal and single determinant S**2 :                    0.000000      -0.000000


 MULLIKEN POPULATION ANALYSIS

 # Atom  Element  Kind  Atomic population (alpha,beta)   Net charge  Spin moment
      1     O        1           3.239971     3.239971    -0.479941    -0.000000
      2     O        1           3.239977     3.239977    -0.479954     0.000000
      3     P        2           2.140021     2.140021     0.719958    -0.000000
      4     P        2           2.140014     2.140014     0.719972    -0.000000
      5     O        1           3.239994     3.239994    -0.479988    -0.000000
      6     P        2           2.140024     2.140024     0.719952     0.000000
      7     O        1           3.239991     3.239991    -0.479982    -0.000000
      8     O        1           3.239988     3.239988    -0.479976     0.000000
      9     O        1           3.239992     3.239992    -0.479985    -0.000000
     10     P        2           2.140028     2.140028     0.719944     0.000000
 # Total charge and spin        28.000000    28.000000    -0.000000    -0.000000


 ENERGY| Total FORCE_EVAL ( QS ) energy (a.u.):             -122.681402465507759


 -------------------------------------------------------------------------------
 ----                             MULTIGRID INFO                            ----
 -------------------------------------------------------------------------------
 count for grid        1:          61426          cutoff [a.u.]          150.00
 count for grid        2:          37671          cutoff [a.u.]           50.00
 count for grid        3:          37811          cutoff [a.u.]           16.67
 count for grid        4:          16380          cutoff [a.u.]            5.56
 total gridlevel count  :         153288

 -------------------------------------------------------------------------------
 -                                                                             -
 -                         MESSAGE PASSING PERFORMANCE                         -
 -                                                                             -
 -------------------------------------------------------------------------------

 ROUTINE             CALLS  TOT TIME [s]  AVE VOLUME [Bytes]  PERFORMANCE [MB/s]
 MP_Group                5         0.000
 MP_Bcast             4528         1.522             209225.              622.45
 MP_Allreduce         9479       108.027              16761.                1.47
 MP_Gather              36         0.002                128.                2.30
 MP_Sync               316         0.000
 MP_Alltoall          6404      1142.104          113817511.              638.20
 MP_SendRecv           224         0.001                190.               42.56
 MP_ISendRecv         9212         0.085             557568.            60427.25
 MP_Wait             34127       360.806
 MP_comm_split         312         0.030
 MP_ISend            19932         5.187            4225011.            16235.38
 MP_IRecv            19932         0.092            4225037.           915363.47
 MP_Recv                87         0.001               5986.              520.80
 -------------------------------------------------------------------------------


 -------------------------------------------------------------------------------
 -                                                                             -
 -                           R E F E R E N C E S                               -
 -                                                                             -
 -------------------------------------------------------------------------------
 
 CP2K version 2.4 (Development Version), the CP2K developers group (2013).
 CP2K is freely available from http://www.cp2k.org/ .

 Grimme, S; Antony, J; Ehrlich, S; Krieg, H. 
 JOURNAL OF CHEMICAL PHYSICS, 132 (15), 154104 (2010). 
 A consistent and accurate ab initio parametrization of density
 functional dispersion correction (DFT-D) for the 94 elements H-Pu.
 http://dx.doi.org/10.1063/1.3382344


 VandeVondele, J; Hutter, J. 
 JOURNAL OF CHEMICAL PHYSICS, 127 (11), 114105 (2007). 
 Gaussian basis sets for accurate calculations on molecular systems in
 gas and condensed phases.
 http://dx.doi.org/10.1063/1.2770708


 Krack, M. 
 THEORETICAL CHEMISTRY ACCOUNTS, 114 (1-3), 145-152 (2005). 
 Pseudopotentials for H to Kr optimized for gradient-corrected
 exchange-correlation functionals.
 http://dx.doi.org/10.1007/s00214-005-0655-y


 VandeVondele, J; Krack, M; Mohamed, F; Parrinello, M; Chassaing, T;
 Hutter, J. COMPUTER PHYSICS COMMUNICATIONS, 167 (2), 103-128 (2005). 
 QUICKSTEP: Fast and accurate density functional calculations using a
 mixed Gaussian and plane waves approach.
 http://dx.doi.org/10.1016/j.cpc.2004.12.014


 Frigo, M; Johnson, SG. 
 PROCEEDINGS OF THE IEEE, 93 (2), 216-231 (2005). 
 The design and implementation of FFTW3.
 http://dx.doi.org/10.1109/JPROC.2004.840301


 VandeVondele, J; Hutter, J. 
 JOURNAL OF CHEMICAL PHYSICS, 118 (10), 4365-4369 (2003). 
 An efficient orbital transformation method for electronic structure
 calculations.
 http://dx.doi.org/10.1063/1.1543154


 Lippert, G; Hutter, J; Parrinello, M. 
 THEORETICAL CHEMISTRY ACCOUNTS, 103 (2), 124-140 (1999). 
 The Gaussian and augmented-plane-wave density functional method for ab
 initio molecular dynamics simulations.
 http://dx.doi.org/10.1007/s002140050523


 Krack, M; Parrinello, M. 
 PHYSICAL CHEMISTRY CHEMICAL PHYSICS, 2 (10), 2105-2112 (2000). 
 All-electron ab-initio molecular dynamics.
 http://dx.doi.org/10.1039/b001167n


 Hartwigsen, C; Goedecker, S; Hutter, J. 
 PHYSICAL REVIEW B, 58 (7), 3641-3662 (1998). 
 Relativistic separable dual-space Gaussian pseudopotentials from H to Rn.
 http://dx.doi.org/10.1103/PhysRevB.58.3641


 Perdew, JP; Burke, K; Ernzerhof, M. 
 PHYSICAL REVIEW LETTERS, 77 (18), 3865-3868 (1996). 
 Generalized gradient approximation made simple.
 http://dx.doi.org/10.1103/PhysRevLett.77.3865


 Goedecker, S; Teter, M; Hutter, J. 
 PHYSICAL REVIEW B, 54 (3), 1703-1710 (1996). 
 Separable dual-space Gaussian pseudopotentials.
 http://dx.doi.org/10.1103/PhysRevB.54.1703


 BLOCHL, PE. 
 JOURNAL OF CHEMICAL PHYSICS, 103 (17), 7422-7428 (1995). 
 ELECTROSTATIC DECOUPLING OF PERIODIC IMAGES OF PLANE-WAVE-EXPANDED
 DENSITIES AND DERIVED ATOMIC POINT CHARGES.
 http://dx.doi.org/10.1063/1.470314


 -------------------------------------------------------------------------------
 -                                                                             -
 -                                T I M I N G                                  -
 -                                                                             -
 -------------------------------------------------------------------------------
 SUBROUTINE                       CALLS  ASD         SELF TIME        TOTAL TIME
                                              AVERAGE  MAXIMUM  AVERAGE  MAXIMUM
 CP2K                                 1  1.0    0.242    0.285 6335.456 6335.498
 geoopt_bfgs                          1  3.0    0.003    0.014 6332.030 6332.031
 cp_geo_opt                           1  2.0    0.001    0.001 6332.031 6332.031
 cp_eval_at                           9  4.0    0.002    0.005 6326.297 6326.297
 qs_energies_scf                      9  5.9    0.002    0.006 6074.097 6074.098
 scf_env_do_scf                       9  6.9    0.002    0.003 5992.891 5992.892
 qs_forces                            8  5.0    0.008    0.009 5972.037 5972.037
 scf_env_do_scf_inner_loop          156  7.9    0.044    0.073 5714.899 5714.900
 qs_ks_build_kohn_sham_matrix       164  9.8    4.491    8.482 5064.250 5064.257
 fft_wrap_pw1pw2                   5595 12.9    0.302    0.342 4705.058 4841.059
 qs_ks_update_qs_env                165  8.9    0.003    0.004 4812.719 4812.725
 fft_wrap_pw1pw2_150               3621 14.0  336.953  428.170 4512.226 4641.572
 fft3d_ps                          5595 14.9 2090.511 2187.234 3596.892 3790.471
 qs_vxc_create                      164 10.8    0.009    0.011 3487.447 3487.449
 xc_vxc_pw_create                   164 11.8   81.501  103.053 3487.438 3487.439
 xc_rho_set_and_dset_create         164 12.8   41.557   58.261 1527.942 1704.499
 qs_rho_update_rho                  165  9.0    0.004    0.006 1189.281 1189.285
 calculate_rho_elec                 330 10.0   27.323   37.955 1187.380 1187.383
 density_rs2pw                      330 11.0    0.043    0.050 1144.658 1158.191
 yz_to_x                           2805 15.5  774.336  969.762  774.336  969.762
 sum_up_and_integrate               164 10.8   31.631   45.455  801.790  802.159
 integrate_v_rspace                 328 11.8    7.272    7.422  770.156  779.966
 x_to_yz                           2790 16.3  732.004  777.176  732.004  777.176
 potential_pw2rs                    328 12.8    1.594    1.853  762.269  771.763
 rs_pw_transfer                    2977 12.8    0.147    0.173  649.187  657.861
 pw_scatter_p                      2790 15.3  394.918  398.740  394.918  398.740
 pw_gather_p                       2805 14.5  359.093  361.729  359.093  361.729
 prepare_gapw_den                   164 10.8    2.452    9.661  297.022  299.631
 xc_functional_eval                 492 13.1    0.024    0.032  130.017  297.390
 pbe_lsd_eval                       492 14.1  129.993  297.363  129.993  297.363
 put_rho0_on_grid                   164 11.8    7.586   10.815  286.492  289.102
 init_scf_loop                        9  7.9    0.001    0.002  277.973  277.973
 rs_pw_transfer_PW2RS_150           500 14.1  233.508  253.732  250.672  274.278
 qs_ks_update_qs_env_forces           8  6.0    0.000    0.001  251.582  251.584
 qs_ks_ddapc                        164 10.8    0.003    0.004  239.926  249.145
 rs_pw_transfer_RS2PW_150           503 13.2  231.651  244.670  231.651  244.670
 pw_derive                         1968 13.3  182.195  192.197  182.195  192.197
 fft_wrap_pw1pw2_50                 658 13.9   14.233   16.186  160.722  166.852
 pw_copy                           3454 13.4  118.846  142.445  118.846  142.445
 pw_axpy                           3803 12.2  118.901  140.271  118.901  140.271
 -------------------------------------------------------------------------------

  **** **** ******  **  PROGRAM ENDED AT                 2013-09-18 12:55:39.257
 ***** ** ***  *** **   PROGRAM RAN ON                                        n6
 **    ****   ******    PROGRAM RAN BY                                       spf
 ***** **    ** ** **   PROGRAM PROCESS ID                                 14418
  **** **  *******  **  PROGRAM STOPPED IN                   /mnt/CalcC/spf/P4O6
